90
 ** Energy = -119.194012 Eh ** Charge = 0 ** Spin = 0 ** Curcuma 0.1 (0.0.154)
C  1.370669    -1.685581    1.151835
C  0.819214    -1.562953    2.432368
C  -0.548929    -1.788458    2.616390
C  -1.359017    -2.110888    1.523014
C  -0.821104    -2.107039    0.232546
C  0.547841    -1.899967    0.041646
C  1.131381    -1.971568    -1.346562
C  1.404201    -3.423967    -1.745780
H  1.817748    -3.466157    -2.751030
H  0.488899    -4.011005    -1.723084
H  2.113569    -3.886484    -1.060839
H  2.055210    -1.403289    -1.411166
H  0.449170    -1.506012    -2.057738
C  -1.769836    -2.188375    -0.948647
N  -2.467608    -0.924168    -1.112398
C  -1.951293    0.102842    -1.850091
N  -0.994178    -0.173645    -2.731039
C  -0.517653    0.802707    -3.496462
C  -0.992066    2.100377    -3.425241
C  -2.003747    2.407465    -2.512844
C  -2.487736    1.392595    -1.715214
H  -3.264642    1.573684    -0.988044
C  -2.524799    3.807441    -2.403710
H  -2.746672    4.209956    -3.390702
H  -3.426942    3.840887    -1.797866
H  -1.773289    4.450010    -1.943977
H  -0.588837    2.865619    -4.071567
C  0.593328    0.423596    -4.427811
H  1.546797    0.520794    -3.907004
H  0.608150    1.072574    -5.299871
H  0.480774    -0.611217    -4.741157
H  -3.012290    -0.626090    -0.315489
H  -1.252931    -2.380446    -1.883151
H  -2.512419    -2.977121    -0.809332
C  -2.784804    -2.562384    1.744825
C  -2.808059    -4.085424    1.910994
H  -2.192355    -4.389763    2.754761
H  -3.824949    -4.433365    2.080351
H  -2.417609    -4.574233    1.021074
H  -3.428583    -2.288651    0.911696
H  -3.218087    -2.100898    2.626989
C  -1.202746    -1.598138    3.970774
N  -2.181254    -0.516825    3.980683
C  -2.209080    0.533671    3.099456
N  -3.436780    0.990761    2.837944
C  -3.576030    2.046068    2.048294
C  -2.493397    2.680603    1.456056
C  -1.208000    2.213221    1.712463
C  -1.065749    1.129738    2.563206
H  -0.085200    0.763489    2.810522
C  -0.007620    2.863416    1.102688
H  -0.285767    3.777764    0.584807
H  0.474085    2.195788    0.387408
H  0.726509    3.104854    1.869936
H  -2.649217    3.533213    0.812853
C  -4.978857    2.522021    1.810188
H  -5.677780    1.877128    2.334642
H  -5.212020    2.512939    0.746069
H  -5.095483    3.542659    2.171238
H  -3.114738    -0.764970    4.275732
H  -0.459073    -1.395553    4.744110
H  -1.714123    -2.518888    4.264273
C  1.709261    -1.227791    3.609048
C  2.159270    -2.499443    4.332164
H  1.301481    -3.054253    4.705309
H  2.804534    -2.251061    5.172229
H  2.708330    -3.149295    3.654180
H  1.187406    -0.579325    4.314049
H  2.586526    -0.671673    3.283450
C  2.852674    -1.432807    0.952269
N  3.081066    -0.007113    0.749064
C  3.272882    0.555630    -0.487450
N  2.669484    1.727778    -0.672588
C  2.840784    2.371923    -1.820448
C  3.625136    1.862344    -2.842980
C  4.280555    0.644455    -2.659067
C  4.106340    -0.016489    -1.458809
H  4.616370    -0.948140    -1.265979
C  5.145701    0.081086    -3.743715
H  5.932899    0.787759    -4.002939
H  4.553192    -0.099867    -4.640205
H  5.603418    -0.854788    -3.432829
H  3.736714    2.404564    -3.769845
C  2.102571    3.666747    -1.965959
H  2.529996    4.272296    -2.760735
H  1.059815    3.457147    -2.203214
H  2.129549    4.215383    -1.028191
H  2.458376    0.570264    1.302430
H  3.429092    -1.763598    1.820045
H  3.232385    -1.986094    0.096701
