231
 ** Energy =  37.005701 Eh ** Charge = 0 ** Spin = 0 ** Curcuma 0.1 (0.0.66-3-gaad38d4)
C  2.973300    -0.386204    -1.152201
C  2.517456    -1.797443    -0.619334
C  1.284596    -1.905002    0.354760
C  0.403576    -0.634691    0.649354
C  0.844098    0.772859    0.099296
C  2.088196    0.884820    -0.861657
C  2.416304    2.293786    -1.618834
C  3.473465    3.220807    -0.708931
C  -0.989426    -0.786298    1.487817
C  -0.714645    -0.593972    3.129310
C  3.263371    -3.152487    -1.143665
C  4.526793    -3.560811    -0.122905
C  -0.009394    2.102830    0.500981
N  -1.238667    2.276518    -0.494042
C  0.859991    -3.346873    0.985785
N  -0.294270    -3.995395    0.114663
C  4.281723    -0.259241    -2.118019
C  -2.516930    2.699947    0.243385
N  -3.812511    1.998851    -0.034022
C  -5.123475    2.491253    0.511136
C  -5.119037    3.727283    1.469564
C  -3.753752    4.410167    1.807469
N  -2.503181    3.883999    1.163374
C  -3.676679    5.637132    2.859039
C  -6.510544    1.782516    0.073535
N  3.835786    -0.367373    -3.634594
C  -0.618942    -5.470511    0.592236
C  -2.096825    -5.902368    0.079885
C  -2.290269    -6.491321    -1.364214
C  -3.734807    -6.809836    -1.890141
C  -4.926280    -6.816909    -0.872579
C  -4.783504    -6.029509    0.474799
C  -3.347104    -5.689072    1.008281
C  5.036094    -0.059672    -4.620835
C  4.515506    -0.121628    -6.159478
C  4.553435    1.163356    -7.061079
C  3.835147    1.161744    -8.456825
C  3.315706    -0.191489    -9.054060
C  3.196396    -1.451911    -8.131155
C  3.911196    -1.453502    -6.733541
C  -6.094197    -5.391354    1.189978
C  3.534148    2.560886    -9.225615
C  2.312555    -2.728721    -8.604892
N  0.768984    -2.431013    -8.392715
C  -0.103997    -3.731388    -8.642631
C  -1.609895    -3.521139    -8.054537
C  -4.029969    -6.850401    -3.485258
N  -4.103106    -5.372328    -4.052448
C  -4.430091    -5.358986    -5.603647
C  -3.614275    -4.153845    -6.330790
C  -2.536364    -2.382270    -8.628563
C  -3.698768    -1.831153    -7.723463
C  -4.315200    -2.774951    -6.625774
C  -2.149009    -4.399310    -6.857420
C  -1.173386    -5.444037    -6.072986
C  -1.074232    -6.897941    -6.898190
C  -5.644009    -2.323863    -5.795782
C  -7.027102    -2.620901    -6.690897
C  -4.173362    -0.279272    -7.844865
N  -3.587078    0.567273    -6.634147
C  -4.438027    1.812431    -6.341469
C  -2.472309    -1.974351    -10.205700
C  -3.945499    -2.260187    -10.948022
N  -5.054591    2.593916    -7.463657
C  -5.823397    3.863312    -7.229373
C  -5.943099    4.408860    -5.768259
C  -5.293390    3.589714    -4.606044
N  -4.595159    2.300905    -4.933083
C  -5.321559    4.140085    -3.084758
C  -6.529928    4.631440    -8.465603
N  -6.059437    -3.804153    1.089969
N  2.852150    3.594174    -8.231865
C  -6.005124    -3.302081    -0.421876
C  -7.265060    -3.147071    1.892694
C  -7.284546    -3.817744    -1.261587
O  -8.554853    -3.020897    -1.254436
O  -7.201060    -4.993258    -2.039228
C  -8.565752    -1.786077    -2.198847
C  -10.131660    -1.427392    -2.627874
C  -7.094008    -1.543761    1.964860
O  -8.231862    -0.708005    1.993683
O  -5.723035    -0.936398    1.997154
C  -5.074640    -0.829189    3.405553
C  -4.489757    0.711599    3.630934
C  2.793733    5.067040    -8.828155
C  1.448017    3.094311    -7.673431
C  1.970013    5.121765    -10.216092
O  2.576606    4.561163    -11.468754
O  0.719524    5.777876    -10.273147
C  1.588471    3.820892    -12.413546
C  2.444009    2.879713    -13.484961
C  0.488035    2.540917    -8.848029
O  0.597972    1.203115    -9.289233
O  -0.571134    3.430065    -9.426386
C  -1.993764    2.809405    -9.488613
C  -3.069729    3.940843    -10.059492
H  2.915227    2.072253    -2.682591
H  1.407020    2.910816    -1.781230
H  4.497555    2.621474    -0.548394
H  3.696200    4.246518    -1.288897
H  2.981352    3.462039    0.355993
H  -1.769221    0.043116    1.126763
H  -1.456220    -1.870640    1.300978
H  -0.263095    0.495254    3.336778
H  -1.750610    -0.716577    3.719109
H  0.060484    -1.424913    3.506575
H  3.699253    -2.977636    -2.240842
H  2.482371    -4.056815    -1.173452
H  5.053658    -4.558753    -0.528287
H  5.325503    -2.668474    -0.097417
H  4.105576    -3.751043    0.981925
H  -0.418971    1.995519    1.616314
H  0.681384    3.071988    0.429440
H  -0.993241    2.961716    -1.347358
H  1.796185    -4.084337    1.000800
H  0.460147    -3.197236    2.100347
H  -0.075823    -3.946635    -0.979465
H  4.812490    0.795000    -1.944183
H  5.056790    -1.133410    -1.878196
H  -6.084412    4.119508    1.909905
H  -4.376129    6.538828    2.478471
H  -4.056472    5.266712    3.938803
H  -2.541123    6.024241    2.947685
H  -6.304204    0.635552    -0.219707
H  -7.291784    1.824879    0.987471
H  -6.975584    2.358158    -0.874572
H  3.349840    -1.345848    -3.860401
H  -0.578842    -5.515033    1.786874
H  0.200432    -6.214417    0.138296
H  -1.392362    -6.673788    -2.027550
H  -5.865087    -7.407242    -1.094369
H  -3.213829    -5.281606    2.055051
H  5.895944    -0.873856    -4.454362
H  5.466296    1.029865    -4.381941
H  5.101285    2.088232    -6.708675
H  3.042888    -0.262029    -10.150118
H  4.013815    -2.417924    -6.151252
H  -7.085836    -5.796341    0.660933
H  -6.104466    -5.703255    2.344948
H  4.565345    3.026202    -9.616254
H  2.812440    2.363130    -10.153619
H  2.508960    -2.947513    -9.764166
H  2.618082    -3.688909    -7.960930
H  0.420251    -1.565446    -9.007191
H  0.423662    -4.651430    -8.101969
H  -0.153560    -3.943458    -9.816905
H  -5.072854    -7.398572    -3.691274
H  -3.151912    -7.441098    -4.041634
H  -4.810114    -4.735078    -3.467526
H  -4.108987    -6.403727    -6.085501
H  -5.604875    -5.203327    -5.747938
H  -0.079037    -4.977937    -5.970351
H  -1.612147    -5.656712    -4.981688
H  -2.164552    -7.386313    -6.979906
H  -0.346903    -7.640412    -6.299904
H  -0.637771    -6.709657    -7.997235
H  -5.708251    -2.937294    -4.772682
H  -5.589779    -1.155239    -5.550646
H  -7.986927    -2.279430    -6.058345
H  -6.981402    -2.001487    -7.715278
H  -7.103578    -3.791057    -6.934372
H  -3.770758    0.192645    -8.864277
H  -5.366100    -0.220009    -7.825003
H  -3.423600    -0.062093    -5.721747
H  -2.203430    -0.813471    -10.307501
H  -1.640433    -2.622033    -10.763406
H  -3.869988    -1.958445    -12.105767
H  -4.217190    -3.424026    -10.853474
H  -4.796995    -1.605218    -10.418065
H  -6.483623    5.379971    -5.557309
H  -4.788687    3.345509    -2.356940
H  -4.736177    5.189434    -3.025061
H  -6.461267    4.299335    -2.734406
H  -5.814468    5.518653    -8.850102
H  -6.723136    3.857046    -9.365741
H  -7.580804    5.094352    -8.106881
H  -5.986216    -2.107936    -0.424813
H  -5.000996    -3.712789    -0.926948
H  -8.293181    -3.421779    1.348308
H  -7.273013    -3.593252    3.004038
H  -8.084846    -0.860410    -1.627906
H  -7.930652    -2.032159    -3.174795
H  -10.614159    -2.367171    -3.195808
H  -10.769143    -1.184086    -1.641516
H  -10.137161    -0.473261    -3.354709
H  -5.889234    -1.071962    4.238696
H  -4.182553    -1.612420    3.475728
H  -5.394382    1.495276    3.553391
H  -3.982160    0.790947    4.714615
H  -3.673926    0.956303    2.787067
H  2.271094    5.784173    -8.024524
H  3.915624    5.440760    -9.018842
H  1.652162    2.216973    -6.884604
H  0.909250    4.007105    -7.117292
H  0.867181    3.132021    -11.765940
H  0.947762    4.626674    -13.009476
H  3.093442    2.074661    -12.877660
H  1.680036    2.311066    -14.214012
H  3.173528    3.576890    -14.133137
H  -1.975275    1.870525    -10.218952
H  -2.313339    2.464610    -8.396750
H  -4.164581    3.455584    -10.116721
H  -3.086643    4.883976    -9.318727
H  -2.730815    4.296096    -11.153848
C  -2.047123    -0.920616    -3.170353
C  -1.138163    -2.048553    -3.991843
C  0.446468    -1.533288    -4.072472
C  0.503110    -0.025652    -4.788877
C  -0.470287    1.026952    -3.927656
O  -1.912714    0.460328    -3.860357
O  -1.207398    -3.407533    -3.264768
O  1.287989    -2.537845    -4.885211
O  0.009194    -0.123338    -6.250123
C  -0.492876    2.528616    -4.646994
O  -1.395755    3.482730    -3.838079
H  -2.203924    -3.822905    -3.137411
H  0.924742    -2.754934    -5.884485
H  -2.437958    3.186097    -3.756466
H  -1.566735    -2.175849    -5.084026
H  0.886059    -1.461916    -2.979274
H  1.610433    0.374840    -4.795867
H  -0.055634    1.125078    -2.828499
H  -1.064077    -0.204851    -6.385717
H  0.609552    2.974866    -4.674837
H  -0.920100    2.439277    -5.754046
O  -3.531325    -1.349166    -3.178040
H  -1.670221    -0.834444    -2.058336
C  -4.472868    -0.448742    -2.346796
H  -4.317848    0.691946    -2.668029
H  -5.604001    -0.775487    -2.551345
H  -4.215554    -0.581014    -1.186448
