114
#1 ** Energy = -2472.319903 Eh ** Charge = 0 ** Spin = 0 ** Curcuma 0.1 (0.0.158)
C  10.847225    4.799988    1.340095
N  9.827376    2.998034    2.587825
C  9.886344    5.574987    0.700598
N  9.077893    1.695515    4.337745
C  10.025903    6.958988    0.672633
N  10.805956    0.903980    2.889708
C  11.092048    7.568782    1.326735
N  7.875957    8.127402    0.912620
C  12.040020    6.786854    1.984290
N  6.476071    9.548290    2.082157
C  11.914107    5.400339    2.002167
N  8.059335    10.423184    0.527264
C  10.652282    3.286220    1.421988
N  12.616185    7.889623    4.093540
C  9.909443    1.827295    3.284874
N  12.129549    7.503271    6.319589
C  9.151337    0.569951    5.043214
N  14.009320    6.447271    5.300846
C  10.054380    -0.435732    4.709773
C  10.873132    -0.216368    3.599208
C  8.208158    0.437047    6.238927
C  11.875701    -1.275383    3.139653
C  8.677294    4.907253    0.046128
C  8.964291    4.533063    -1.434014
C  8.951706    7.809258    -0.015213
C  7.460719    9.407798    1.172664
C  6.062483    10.780577    2.359213
C  6.626341    11.891056    1.732772
C  7.643639    11.653313    0.808259
C  4.949264    10.919222    3.396342
C  8.322972    12.802629    0.063213
C  11.214670    9.092340    1.317810
C  12.019731    9.580667    0.082451
C  13.144085    7.482762    2.794199
C  12.938488    7.256042    5.267995
C  12.421269    6.914055    7.472995
C  13.523716    6.069053    7.598662
C  14.298046    5.860117    6.458331
C  11.474799    7.180762    8.642632
C  15.519627    4.941566    6.480430
C  12.915226    4.531887    2.762126
C  14.089757    4.095110    1.845817
H  9.214582    3.720547    2.952517
H  7.442384    7.390745    1.455469
H  11.739374    8.398045    4.111825
H  10.115475    -1.344726    5.278961
H  6.296041    12.888061    1.958449
H  13.757156    5.588589    8.530784
H  10.189331    2.912674    0.510755
H  11.600964    2.767946    1.523295
H  8.516463    1.117623    7.029394
H  8.218981    -0.576312    6.622680
H  7.195588    0.706277    5.944274
H  12.222478    -1.865369    3.981016
H  12.719306    -0.797675    2.651708
H  11.400670    -1.942861    2.423109
H  7.822085    5.566980    0.090078
H  8.409200    4.017087    0.599047
H  8.098000    4.055905    -1.879610
H  9.805362    3.852471    -1.496965
H  9.205756    5.419343    -2.009241
H  9.363098    8.748999    -0.369544
H  8.563983    7.281198    -0.883700
H  4.778196    11.961349    3.638128
H  5.229394    10.372265    4.295767
H  4.028828    10.487778    3.009965
H  8.211209    13.732634    0.609185
H  7.872315    12.920216    -0.920344
H  9.377128    12.581175    -0.073076
H  11.701038    9.438163    2.217709
H  10.230646    9.542053    1.301078
H  12.092046    10.662799    0.081952
H  11.532798    9.267114    -0.833593
H  13.020809    9.165134    0.092463
H  13.989352    6.824871    2.967499
H  13.513188    8.351918    2.254244
H  11.788270    6.633052    9.523516
H  10.466962    6.876533    8.367184
H  11.455023    8.243821    8.870223
H  15.540287    4.351038    7.389064
H  13.720757    3.536692    0.993192
H  16.428574    5.537188    6.426031
H  14.620497    4.965552    1.477214
H  15.500264    4.282300    5.616987
H  12.413897    3.656921    3.151660
H  13.312480    5.072598    3.610253
H  14.787116    3.471083    2.393901
C  9.457655    6.056877    4.481221
C  8.966256    7.547284    4.397941
C  7.607204    7.661200    5.156154
C  6.595170    6.665356    4.502241
C  7.208202    5.230286    4.609500
O  8.480599    5.171720    3.968899
O  9.899330    8.480902    4.905688
O  7.100979    8.983567    5.068469
O  6.358270    6.961542    3.142681
C  6.288175    4.156662    3.933754
O  6.463164    2.863932    4.483875
H  10.397415    8.106692    5.669430
H  7.862487    9.593424    5.126285
H  7.402274    2.578739    4.407589
H  8.793184    7.776983    3.342977
H  7.764884    7.365021    6.198537
H  5.668866    6.680983    5.087486
H  7.308361    4.983688    5.671520
H  6.177182    7.924044    3.024653
H  5.246972    4.447465    4.096481
H  6.472704    4.193882    2.852766
H  10.351625    5.922930    3.852131
O  9.745079    5.789335    5.839194
C  10.402859    4.544898    6.050644
H  9.794296    3.698268    5.705415
H  10.581016    4.441325    7.124114
H  11.367455    4.512063    5.529792
114
#231 ** Energy = -2472.314827 Eh ** Charge = 0 ** Spin = 0 ** Curcuma 0.1 (0.0.158)
C  0.682254    -1.394586    -2.390267
N  -0.885145    -3.230818    -1.906231
C  0.051232    -0.418689    -3.155741
N  0.210746    -4.805431    -0.579134
C  0.290103    0.928003    -2.896665
N  -2.062330    -4.210267    -0.170445
C  1.153506    1.304011    -1.872111
N  -1.853199    2.057361    -3.111979
C  1.819043    0.321983    -1.143354
N  -1.690427    4.342054    -2.628612
C  1.566075    -1.027001    -1.380169
N  -3.495574    3.009908    -1.805189
C  0.332272    -2.870683    -2.621919
N  2.268294    0.509168    1.272044
C  -0.902457    -4.111846    -0.850112
N  2.543033    0.196939    3.556652
C  0.163891    -5.662611    0.438069
N  4.385220    0.818688    2.173504
C  -0.993861    -5.841697    1.188381
C  -2.103953    -5.067610    0.843438
C  1.445028    -6.438455    0.743595
C  -3.406521    -5.147764    1.637632
C  -0.886756    -0.826971    -4.292430
C  -0.098348    -1.000945    -5.620197
C  -0.511113    1.976881    -3.676486
C  -2.349588    3.181057    -2.502048
C  -2.224592    5.412720    -2.043773
C  -3.411411    5.335511    -1.322004
C  -4.017739    4.079671    -1.223139
C  -1.470700    6.733301    -2.201890
C  -5.296535    3.870670    -0.412477
C  1.351140    2.783221    -1.540833
C  2.501566    3.406218    -2.376286
C  2.829238    0.703171    -0.061215
C  3.083970    0.512054    2.367644
C  3.339920    0.212339    4.626668
C  4.686058    0.528965    4.518509
C  5.173174    0.821896    3.237422
C  2.702062    -0.131069    5.973012
C  6.649913    1.156194    3.024066
C  2.274813    -2.092971    -0.547207
C  3.568537    -2.587959    -1.250320
H  -1.720785    -2.684910    -2.046242
H  -2.283627    1.190509    -2.810021
H  1.269367    0.387167    1.404940
H  -1.030556    -6.533936    2.009007
H  -3.837950    6.200412    -0.849197
H  5.331643    0.540250    5.377423
H  0.214860    -3.064162    -3.685686
H  1.118812    -3.523798    -2.259013
H  2.264255    -5.743300    0.908092
H  1.706576    -7.068732    -0.102930
H  1.317546    -7.058149    1.623367
H  -4.256810    -5.167740    0.961610
H  -3.498600    -4.260686    2.262330
H  -3.417304    -6.029244    2.267690
H  -1.659168    -0.084936    -4.432651
H  -1.389131    -1.752369    -4.051432
H  0.388793    -0.072191    -5.893864
H  -0.766488    -1.292266    -6.423547
H  0.665628    -1.761859    -5.510636
H  -0.058720    2.960758    -3.618821
H  -0.557105    1.704227    -4.728983
H  -0.415630    6.584967    -1.990165
H  -1.872173    7.487485    -1.535174
H  -1.558767    7.086123    -3.227185
H  -5.666812    4.813030    -0.026668
H  -5.093053    3.197315    0.417515
H  -6.059757    3.411178    -1.035348
H  1.564364    2.895958    -0.486999
H  0.436443    3.327727    -1.736687
H  2.282544    3.322620    -3.434669
H  3.435002    2.890405    -2.182071
H  2.626056    4.455261    -2.130802
H  3.715747    0.078226    -0.157730
H  3.165327    1.728075    -0.192183
H  2.070056    0.691392    6.301323
H  3.465519    -0.306231    6.722109
H  2.076158    -1.015224    5.876463
H  6.950102    1.970778    3.677319
H  4.257301    -1.766116    -1.407541
H  6.813804    1.441337    1.990267
H  4.061061    -3.342012    -0.646304
H  7.265439    0.290659    3.257270
H  1.613673    -2.935154    -0.384194
H  2.521519    -1.689823    0.423983
H  3.332953    -3.020387    -2.215599
C  -1.404066    0.919891    0.521733
C  -2.200104    -0.289444    -0.106131
C  -3.148084    -0.917098    0.974710
C  -2.278086    -1.242931    2.238182
C  -1.593616    0.078221    2.728535
O  -0.722405    0.567595    1.713710
O  -2.900014    0.129811    -1.262008
O  -3.853013    -2.035702    0.491303
O  -1.314571    -2.213372    1.873450
C  -0.762689    -0.165290    4.031589
O  0.195632    -1.197331    3.865251
H  -3.440659    0.920161    -1.049150
H  -3.224471    -2.742050    0.215646
H  1.072792    -0.776342    3.681444
H  -1.468168    -1.044408    -0.404949
H  -3.887111    -0.163444    1.256780
H  -2.940420    -1.603938    3.032172
H  -2.371376    0.816074    2.947861
H  -0.594291    -2.186700    2.540317
H  -0.293496    0.778762    4.329311
H  -1.465437    -0.450405    4.821091
H  -0.634180    1.253270    -0.190366
O  -2.347979    1.944752    0.765453
C  -1.763590    3.195570    1.104550
H  -1.155073    3.588326    0.281045
H  -1.130327    3.117928    1.996210
H  -2.574153    3.900842    1.305494
114
#89 ** Energy = -2472.314062 Eh ** Charge = 0 ** Spin = 0 ** Curcuma 0.1 (0.0.158)
C  1.064591    -1.358198    -1.631474
N  0.268749    -3.198547    -0.260618
C  0.053261    -0.775453    -2.390396
N  -0.052585    -5.385906    -0.999788
C  0.021039    0.605977    -2.551808
N  -1.166525    -4.546842    0.939853
C  0.971308    1.404795    -1.917631
N  -2.259348    1.543562    -2.552222
C  1.976012    0.815381    -1.154822
N  -3.655897    2.972980    -1.390768
C  2.016068    -0.567948    -0.997829
N  -2.259716    3.803598    -3.140468
C  1.082975    -2.873103    -1.424241
N  2.543049    2.161011    0.845873
C  -0.327037    -4.418425    -0.102054
N  2.485453    2.201672    3.157309
C  -0.651891    -6.556206    -0.825417
N  4.206882    1.012367    2.019386
C  -1.527426    -6.785396    0.242187
C  -1.762855    -5.726082    1.110489
C  -0.354920    -7.660958    -1.840157
C  -2.719764    -5.851056    2.295485
C  -1.019085    -1.656641    -3.028891
C  -0.593521    -2.141957    -4.441801
C  -1.100954    1.247758    -3.382795
C  -2.737996    2.810786    -2.363130
C  -4.140215    4.199293    -1.200662
C  -3.715009    5.276936    -1.969389
C  -2.743380    5.020887    -2.941722
C  -5.164511    4.369931    -0.078937
C  -2.202331    6.146796    -3.823833
C  0.915505    2.924218    -2.073363
C  1.718899    3.395622    -3.316305
C  3.016620    1.701229    -0.453466
C  3.102524    1.778859    2.035619
C  2.991552    1.823628    4.326151
C  4.127071    1.020440    4.397676
C  4.711022    0.637090    3.188631
C  2.259340    2.296524    5.581877
C  5.967948    -0.232177    3.153303
C  3.101986    -1.223677    -0.147721
C  4.353835    -1.567114    -1.000210
H  0.138039    -2.519128    0.479271
H  -2.637439    0.812826    -1.954027
H  1.692495    2.707715    0.900883
H  -2.006687    -7.737794    0.375751
H  -4.102471    6.266553    -1.812835
H  4.534326    0.707894    5.341514
H  0.672356    -3.389330    -2.286882
H  2.103767    -3.231083    -1.309030
H  0.360663    -7.301584    -2.571897
H  -1.268671    -7.958618    -2.348112
H  0.051885    -8.534035    -1.337005
H  -2.158974    -5.827111    3.227129
H  -3.275780    -6.779718    2.242139
H  -3.411777    -5.011203    2.298744
H  -1.949123    -1.110146    -3.099555
H  -1.208185    -2.510332    -2.392272
H  -0.432130    -1.295711    -5.099537
H  -1.361707    -2.774544    -4.873280
H  0.329715    -2.706964    -4.388073
H  -0.769568    2.180576    -3.827941
H  -1.376670    0.583961    -4.198777
H  -5.533518    5.388195    -0.049262
H  -4.704352    4.127926    0.877664
H  -5.997614    3.688289    -0.229938
H  -1.317710    5.805144    -4.350493
H  -1.955723    7.015348    -3.220758
H  -2.953572    6.441473    -4.553030
H  1.307000    3.406406    -1.189249
H  -0.111168    3.247617    -2.177011
H  1.663054    4.474397    -3.414059
H  1.316590    2.946794    -4.216967
H  2.760134    3.107302    -3.231788
H  3.939646    1.155266    -0.287073
H  3.254153    2.556508    -1.082245
H  2.217398    3.383128    5.600013
H  2.762528    1.943188    6.474341
H  1.237402    1.922518    5.574690
H  5.904117    -0.937628    2.330023
H  5.114398    -2.036071    -0.385747
H  6.090842    -0.768055    4.087802
H  4.093867    -2.242551    -1.807023
H  6.843049    0.394855    2.992912
H  2.716366    -2.125092    0.305708
H  3.396565    -0.563145    0.655928
H  4.770382    -0.666225    -1.435546
C  -1.390772    -0.940816    2.738686
C  -2.527396    -1.077675    1.664458
C  -2.046194    -0.313722    0.392958
C  -1.858307    1.186621    0.790634
C  -0.875088    1.286776    2.009300
O  -1.214220    0.415249    3.084915
O  -2.923598    -2.397395    1.372225
O  -3.027467    -0.415429    -0.629264
O  -3.105083    1.761875    1.123327
C  -0.872440    2.754082    2.587372
O  0.245118    3.517090    2.161808
H  -2.157090    -3.015767    1.324435
H  -3.461266    -1.286541    -0.543105
H  1.025418    3.238968    2.693483
H  -3.397196    -0.538980    2.053634
H  -1.091200    -0.721145    0.052717
H  -1.377565    1.714144    -0.039315
H  0.125828    1.044259    1.637610
H  -3.565299    1.988506    0.283726
H  -1.786571    3.249601    2.249894
H  -0.924161    2.670529    3.678689
H  -1.672574    -1.464647    3.667453
O  -0.210753    -1.506866    2.186015
C  0.907688    -1.503530    3.064748
H  1.749168    -1.957773    2.533886
H  0.706091    -2.085926    3.971842
H  1.186306    -0.484959    3.360850
114
#125 ** Energy = -2472.313987 Eh ** Charge = 0 ** Spin = 0 ** Curcuma 0.1 (0.0.158)
C  0.804762    -1.267888    -2.279247
N  -0.409505    -3.301433    -1.590307
C  -0.030031    -0.417244    -2.999132
N  1.045112    -4.644393    -0.350925
C  0.077083    0.959385    -2.830485
N  -1.225128    -4.342358    0.306200
C  0.999397    1.484979    -1.930065
N  -2.065865    2.114949    -2.736509
C  1.835364    0.630159    -1.217281
N  -3.425830    3.426226    -1.401541
C  1.725565    -0.750082    -1.372164
N  -1.939747    4.431971    -2.976240
C  0.650717    -2.785165    -2.448692
N  2.279953    1.524117    1.060140
C  -0.175803    -4.121826    -0.515814
N  1.972342    1.245019    3.334126
C  1.236593    -5.434456    0.704867
N  3.581767    -0.069365    2.169439
C  0.211924    -5.718290    1.600538
C  -1.032720    -5.130505    1.352975
C  2.643236    -6.003538    0.887869
C  -2.219789    -5.373683    2.285425
C  -1.054193    -0.989550    -3.979270
C  -0.463346    -1.093081    -5.412654
C  -0.888955    1.894653    -3.566905
C  -2.490018    3.359808    -2.366271
C  -3.857343    4.635832    -1.040841
C  -3.358665    5.789146    -1.630481
C  -2.369560    5.628418    -2.608942
C  -4.910320    4.690907    0.065930
C  -1.742761    6.845465    -3.290384
C  1.103112    2.999058    -1.746883
C  2.072960    3.627190    -2.785100
C  2.862490    1.224170    -0.241926
C  2.629427    0.878321    2.215784
C  2.271091    0.614702    4.465134
C  3.236114    -0.388531    4.501974
C  3.877939    -0.697009    3.300582
C  1.489346    1.026401    5.712524
C  4.960133    -1.774438    3.231119
C  2.625125    -1.688885    -0.571864
C  3.939904    -1.997522    -1.338286
H  -1.319866    -2.869117    -1.632075
H  -2.470006    1.309011    -2.264283
H  1.516242    2.183867    1.124959
H  0.368848    -6.352802    2.453187
H  -3.703277    6.763985    -1.338825
H  3.474085    -0.904683    5.413697
H  0.435637    -3.022344    -3.488135
H  1.563687    -3.306320    -2.180157
H  2.705809    -6.590334    1.796783
H  3.364393    -5.191177    0.931822
H  2.900702    -6.631204    0.037936
H  -2.981950    -4.617325    2.121522
H  -1.897525    -5.352031    3.321415
H  -2.653280    -6.351218    2.084037
H  -1.937917    -0.366426    -3.991289
H  -1.376103    -1.968145    -3.655875
H  -1.200110    -1.494380    -6.100129
H  0.404862    -1.741898    -5.417785
H  -0.154350    -0.116626    -5.766895
H  -0.433737    2.859856    -3.763657
H  -1.167352    1.471941    -4.528620
H  -4.524914    4.214527    0.965615
H  -5.801262    4.149143    -0.242127
H  -5.175525    5.717334    0.289834
H  -1.286489    7.496327    -2.549222
H  -2.504783    7.414163    -3.816916
H  -0.987093    6.519328    -3.996846
H  1.446308    3.236955    -0.751002
H  0.127367    3.451885    -1.855678
H  1.730169    3.424585    -3.792950
H  3.067907    3.211177    -2.677537
H  2.128358    4.701783    -2.648559
H  3.681529    0.532221    -0.076390
H  3.285069    2.131282    -0.669577
H  1.858123    0.502164    6.586425
H  0.434234    0.795823    5.576731
H  1.579362    2.098327    5.870850
H  4.890450    -2.303277    2.285117
H  4.566504    -2.666243    -0.758898
H  4.858277    -2.474581    4.052736
H  3.723886    -2.466705    -2.291013
H  5.943695    -1.311725    3.287980
H  2.106835    -2.615831    -0.371111
H  2.868494    -1.244635    0.383375
H  4.492828    -1.085067    -1.528421
C  -2.039925    -1.309587    2.240859
C  -2.947896    -1.234850    0.956637
C  -2.193721    -0.346349    -0.086570
C  -2.004415    1.066974    0.570280
C  -1.243472    0.915781    1.931572
O  -1.860423    -0.026234    2.802000
O  -3.342542    -2.491222    0.463621
O  -2.925313    -0.245140    -1.305687
O  -3.269725    1.664454    0.782085
C  -1.191678    2.291848    2.692264
O  0.002454    3.013663    2.430935
H  -2.571549    -3.101155    0.376225
H  -3.873784    -0.369770    -1.119289
H  0.727797    2.576686    2.932435
H  -3.850592    -0.688096    1.247090
H  -1.216643    -0.779259    -0.314591
H  -1.369552    1.674980    -0.081477
H  -0.222767    0.596305    1.700435
H  -3.500612    2.209135    -0.005744
H  -2.045465    2.891893    2.367328
H  -1.320775    2.080250    3.759618
H  -2.534124    -1.921044    3.013899
O  -0.811099    -1.888154    1.841955
C  0.104423    -2.136384    2.898049
H  1.021148    -2.533796    2.452190
H  -0.289278    -2.873094    3.608452
H  0.349525    -1.221060    3.448964
114
#228 ** Energy = -2472.312389 Eh ** Charge = 0 ** Spin = 0 ** Curcuma 0.1 (0.0.158)
C  0.530884    -0.757472    -2.230970
N  -1.357338    -2.243103    -1.756153
C  0.077398    0.454796    -2.740815
N  -0.600935    -4.335157    -1.060819
C  0.656175    1.648604    -2.312780
N  -2.449694    -3.278407    0.013422
C  1.700514    1.628263    -1.392360
N  -1.154727    3.221471    -1.896864
C  2.167454    0.408126    -0.907162
N  -2.596000    3.646733    -3.692415
C  1.562610    -0.782499    -1.297214
N  -3.425720    2.963365    -1.560356
C  -0.196215    -2.051159    -2.618715
N  2.779914    0.179755    1.463919
C  -1.470781    -3.319833    -0.910736
N  3.082380    -0.295961    3.718793
C  -0.724739    -5.373994    -0.245113
N  4.948355    -0.078515    2.243933
C  -1.717817    -5.422362    0.732924
C  -2.569238    -4.324331    0.829492
C  0.261864    -6.527752    -0.428329
C  -3.656758    -4.257288    1.900154
C  -1.046531    0.468135    -3.775216
C  -0.468803    0.378318    -5.214719
C  0.017833    2.978043    -2.739401
C  -2.432922    3.285448    -2.406186
C  -3.840392    3.712223    -4.148220
C  -4.938334    3.422639    -3.331256
C  -4.674415    3.037616    -2.021389
C  -4.038406    4.110489    -5.611144
C  -5.791247    2.653971    -1.051206
C  2.313020    2.934179    -0.886863
C  3.497046    3.385090    -1.784092
C  3.306363    0.354963    0.111447
C  3.624578    -0.070611    2.509161
C  3.916289    -0.524390    4.736120
C  5.291697    -0.542102    4.553205
C  5.768727    -0.315790    3.255916
C  3.292764    -0.761394    6.111838
C  7.269255    -0.332934    2.962768
C  2.033727    -2.108272    -0.703076
C  3.117954    -2.774311    -1.593660
H  -1.952878    -1.442543    -1.575653
H  -1.116926    2.921437    -0.932617
H  1.789772    0.258972    1.660788
H  -1.813720    -6.263314    1.394243
H  -5.943398    3.478202    -3.708015
H  5.963996    -0.727857    5.370588
H  -0.497037    -2.013329    -3.662731
H  0.445789    -2.917580    -2.501156
H  1.185912    -6.155656    -0.858664
H  -0.158142    -7.268156    -1.106096
H  0.466654    -7.009571    0.521606
H  -4.595792    -3.927117    1.464807
H  -3.360423    -3.528214    2.654106
H  -3.790490    -5.224891    2.368472
H  -1.630138    1.369598    -3.686934
H  -1.723279    -0.355529    -3.600683
H  0.183493    1.221712    -5.410201
H  -1.270172    0.384332    -5.945474
H  0.107735    -0.531094    -5.338245
H  0.728485    3.795943    -2.662881
H  -0.315904    2.945586    -3.773207
H  -3.076393    4.324857    -6.064051
H  -4.672634    4.990180    -5.679264
H  -4.519726    3.303317    -6.157405
H  -5.788983    3.329479    -0.199142
H  -5.624770    1.645222    -0.677345
H  -6.756997    2.699333    -1.540619
H  2.654778    2.808986    0.131267
H  1.563600    3.712029    -0.870645
H  3.155977    3.544159    -2.800914
H  4.268382    2.623531    -1.801758
H  3.928599    4.308614    -1.413348
H  3.967417    -0.478325    -0.120117
H  3.918672    1.251086    0.055940
H  4.052899    -1.051539    6.827554
H  2.533602    -1.538332    6.051694
H  2.808302    0.148254    6.459290
H  7.777612    0.417142    3.562918
H  3.978973    -2.124695    -1.699393
H  7.437588    -0.126830    1.911103
H  3.442339    -3.711563    -1.154911
H  7.688216    -1.304968    3.210160
H  1.195636    -2.785237    -0.601615
H  2.429139    -1.942227    0.289065
H  2.722493    -2.975343    -2.582495
C  -0.708670    1.166445    1.044705
C  -1.734299    0.088707    0.533179
C  -2.829965    -0.139965    1.624582
C  -2.069487    -0.589064    2.922154
C  -1.067025    0.551540    3.323393
O  -0.129698    0.795568    2.280182
O  -2.267119    0.415159    -0.729108
O  -3.811910    -1.055688    1.203745
O  -1.403537    -1.808215    2.646795
C  -0.250148    0.164461    4.602194
O  0.492040    -1.027661    4.405597
H  -2.782671    1.249513    -0.686817
H  -3.377737    -1.825427    0.766403
H  1.389722    -0.795739    4.057202
H  -1.177627    -0.844649    0.426425
H  -3.325461    0.811784    1.831299
H  -2.794981    -0.699393    3.735129
H  -1.647229    1.455324    3.534877
H  -0.648229    -1.892587    3.268629
H  0.395061    1.006728    4.874983
H  -0.959062    0.009232    5.421487
H  0.123349    1.240878    0.331296
O  -1.398745    2.401290    1.128486
C  -0.615933    3.487043    1.611224
H  -1.224212    4.392524    1.526209
H  0.298479    3.620060    1.022241
H  -0.328959    3.349483    2.659624
114
#321 ** Energy = -2472.311824 Eh ** Charge = 0 ** Spin = 0 ** Curcuma 0.1 (0.0.158)
C  1.422461    -1.363252    -1.104008
N  0.121784    -3.285771    -0.347011
C  0.538440    -0.838011    -2.051421
N  0.175838    -5.240093    -1.609815
C  0.425227    0.540174    -2.186047
N  -1.779172    -4.612824    -0.396890
C  1.239211    1.391607    -1.436338
N  -1.796928    1.572516    -2.324917
C  2.176977    0.858556    -0.562116
N  -3.354354    3.122701    -1.613530
C  2.239578    -0.520893    -0.360958
N  -1.958310    3.587976    -3.492659
C  1.425178    -2.873097    -0.853887
N  2.603725    2.016405    1.576863
C  -0.510054    -4.412504    -0.791962
N  2.774055    2.152038    3.879637
C  -0.444365    -6.329045    -2.034122
N  4.646721    1.470977    2.560500
C  -1.759624    -6.626602    -1.651204
C  -2.397029    -5.717512    -0.820806
C  0.323872    -7.263571    -2.969221
C  -3.836137    -5.931442    -0.351620
C  -0.276804    -1.772740    -2.949724
C  -1.781829    -1.856177    -2.580839
C  -0.640531    1.147075    -3.105371
C  -2.389322    2.795053    -2.491489
C  -3.946973    4.306869    -1.760937
C  -3.576154    5.180171    -2.777298
C  -2.545888    4.768236    -3.628577
C  -5.042660    4.662743    -0.756623
C  -2.062024    5.670193    -4.764743
C  1.101186    2.904875    -1.590251
C  2.029176    3.452413    -2.709050
C  3.110370    1.779698    0.234224
C  3.378544    1.879911    2.696486
C  3.494488    1.996089    4.975453
C  4.829900    1.568836    4.927558
C  5.365689    1.317323    3.673540
C  2.818485    2.301662    6.312806
C  6.810272    0.848140    3.497660
C  3.213083    -1.087224    0.672143
C  4.525495    -1.578067    0.004327
H  -0.379639    -2.658670    0.272554
H  -2.194841    0.968119    -1.612849
H  1.632941    2.293958    1.701803
H  -2.253998    -7.516076    -1.996203
H  -4.050024    6.137049    -2.895601
H  5.407568    1.441685    5.823921
H  1.616175    -3.424824    -1.772529
H  2.212777    -3.148562    -0.160263
H  1.334197    -6.893215    -3.106918
H  -0.173098    -7.317171    -3.934752
H  0.360116    -8.266050    -2.551240
H  -3.849064    -6.137114    0.716590
H  -4.286793    -6.765799    -0.876289
H  -4.424038    -5.032710    -0.525070
H  0.143206    -2.765872    -2.909958
H  -0.182499    -1.440097    -3.976532
H  -2.259069    -2.648696    -3.146239
H  -2.292475    -0.927848    -2.799486
H  -1.897727    -2.067707    -1.527466
H  -0.257557    2.026226    -3.616670
H  -0.930241    0.435056    -3.872596
H  -5.897013    4.004267    -0.896245
H  -5.361451    5.690011    -0.887203
H  -4.674346    4.520570    0.257689
H  -1.137910    5.277127    -5.174940
H  -1.900340    6.681315    -4.403533
H  -2.809715    5.706979    -5.553763
H  1.332838    3.388684    -0.651170
H  0.077528    3.154262    -1.825629
H  3.067022    3.235761    -2.484530
H  1.911392    4.526153    -2.806068
H  1.786285    2.992268    -3.659697
H  4.094064    1.327454    0.329570
H  3.243945    2.716479    -0.300421
H  3.244247    3.201637    6.749552
H  2.969060    1.483465    7.010295
H  1.756214    2.455204    6.153976
H  7.273698    0.662367    4.459298
H  5.205051    -1.975347    0.750293
H  7.382061    1.606277    2.968002
H  4.318530    -2.350950    -0.726593
H  6.833925    -0.061306    2.903590
H  2.750039    -1.901785    1.211420
H  3.456831    -0.329223    1.400862
H  5.014785    -0.753698    -0.501988
C  -0.368880    0.047103    1.884355
C  -0.989832    1.318955    1.204525
C  -2.468589    1.487950    1.676590
C  -3.222763    0.174449    1.303246
C  -2.490159    -1.006751    2.035443
O  -1.145714    -1.109535    1.575566
O  -0.227822    2.467475    1.535878
O  -3.029208    2.669165    1.151619
O  -3.182741    0.020036    -0.105698
C  -3.228316    -2.363913    1.791543
O  -3.462503    -2.604655    0.413387
H  -0.834850    3.232823    1.553767
H  -3.214179    2.576749    0.187092
H  -2.841832    -3.309978    0.099736
H  -0.979005    1.144114    0.125682
H  -2.462140    1.583755    2.765300
H  -4.251836    0.230058    1.674094
H  -2.505596    -0.800906    3.110465
H  -3.411650    -0.914845    -0.303272
H  -2.641770    -3.166044    2.252731
H  -4.186857    -2.312201    2.318886
H  0.635105    -0.133517    1.472088
O  -0.324798    0.271524    3.273996
C  0.556981    -0.593373    3.976830
H  0.549341    -0.290535    5.027780
H  1.582664    -0.508963    3.598054
H  0.242700    -1.642002    3.905581
114
#17 ** Energy = -2472.311662 Eh ** Charge = 0 ** Spin = 0 ** Curcuma 0.1 (0.0.158)
C  0.919019    -0.668407    -1.958235
N  -0.357912    -2.520437    -0.978817
C  0.190725    0.383917    -2.503566
N  -0.943833    -3.931496    0.752653
C  0.659176    1.689273    -2.364255
N  0.718025    -4.586044    -0.831248
C  1.809323    1.943940    -1.625724
N  -0.997330    3.485725    -1.986468
C  2.497568    0.890315    -1.026975
N  -3.036715    4.098817    -1.089466
C  2.056159    -0.417379    -1.192185
N  -2.922682    3.052936    -3.230516
C  0.435121    -2.111586    -2.130670
N  3.120619    1.630006    1.208670
C  -0.185916    -3.718882    -0.342503
N  2.461074    1.258150    3.388530
C  -0.783456    -5.083934    1.397787
N  4.091161    -0.157207    2.367915
C  0.133296    -6.037418    0.961515
C  0.873180    -5.734683    -0.183000
C  -1.637094    -5.309891    2.645754
C  1.891310    -6.722830    -0.752330
C  -1.114999    0.111361    -3.249933
C  -0.872470    -0.107531    -4.767944
C  -0.118635    2.866894    -2.968842
C  -2.364988    3.546954    -2.119131
C  -4.359490    4.171276    -1.194048
C  -5.025429    3.697181    -2.326398
C  -4.249194    3.125299    -3.329770
C  -5.119570    4.788715    -0.020887
C  -4.877019    2.549527    -4.598753
C  2.330554    3.374565    -1.484227
C  3.351789    3.700885    -2.609087
C  3.661418    1.213650    -0.081041
C  3.238450    0.878187    2.351401
C  2.567669    0.566886    4.515404
C  3.446094    -0.513342    4.628856
C  4.194300    -0.845062    3.502737
C  1.661007    0.986961    5.671754
C  5.173908    -2.018621    3.512593
C  2.799340    -1.575381    -0.527851
C  3.966616    -2.078815    -1.418921
H  -0.934252    -1.836683    -0.501671
H  -0.609083    3.883876    -1.147137
H  2.340968    2.278337    1.211223
H  0.264600    -6.967122    1.483604
H  -6.095422    3.753516    -2.407917
H  3.529134    -1.072865    5.542064
H  -0.137919    -2.206903    -3.049794
H  1.279453    -2.791084    -2.213303
H  -1.531021    -6.328467    2.999983
H  -2.683163    -5.106439    2.424733
H  -1.327774    -4.626734    3.433638
H  2.740055    -6.183231    -1.161489
H  1.434819    -7.295587    -1.557463
H  2.228335    -7.411177    0.014618
H  -1.794964    0.944744    -3.122452
H  -1.598802    -0.761331    -2.833354
H  -0.415416    0.772097    -5.206161
H  -1.811073    -0.298013    -5.277064
H  -0.210210    -0.949619    -4.932412
H  0.580048    3.600269    -3.366932
H  -0.745031    2.539772    -3.792373
H  -4.775589    4.348162    0.912783
H  -6.185407    4.626670    -0.130000
H  -4.925412    5.858267    0.023493
H  -4.535202    1.528538    -4.746855
H  -4.567873    3.134194    -5.462180
H  -5.958587    2.561097    -4.530637
H  2.803534    3.511881    -0.522405
H  1.515656    4.081179    -1.529076
H  3.721765    4.715237    -2.504095
H  2.887276    3.599677    -3.583187
H  4.192623    3.018370    -2.565013
H  4.298656    0.351939    0.085363
H  4.282927    2.001143    -0.501527
H  1.856963    0.387087    6.552582
H  0.620386    0.865519    5.377978
H  1.821587    2.036019    5.907362
H  5.066964    -2.596716    2.599255
H  3.591884    -2.420452    -2.377011
H  4.999899    -2.657378    4.370777
H  4.677349    -1.280027    -1.596940
H  6.194876    -1.644761    3.554400
H  2.117362    -2.391541    -0.340982
H  3.193102    -1.262170    0.430795
H  4.482969    -2.901290    -0.936210
C  -0.362607    0.219139    1.296570
C  -0.650615    1.765409    1.163452
C  -2.046477    2.098921    1.809750
C  -3.123902    1.114309    1.208752
C  -2.667758    -0.351659    1.497083
O  -1.441715    -0.554779    0.796800
O  0.409711    2.522885    1.709184
O  -2.402773    3.453025    1.660659
O  -3.294700    1.303640    -0.189462
C  -3.693527    -1.418160    0.987477
O  -3.419773    -2.709543    1.493848
H  0.668252    2.161108    2.584400
H  -2.531105    3.676051    0.710464
H  -2.531619    -3.017690    1.196952