117
input_76 ** Energy = -165.755903 Eh ** Charge = 0 ** Spin = 0 ** Curcuma 0.1 (0.0.76-11-g0d7ba0c)
C  1.570747    -1.419728    -0.985416
N  -0.086186    -3.144552    -0.564198
C  1.202219    -0.576146    -2.037629
N  -2.320242    -2.886198    -0.975796
C  1.454883    0.794582    -1.946538
C  -1.080996    -4.306432    -2.446975
C  2.010774    1.334909    -0.780237
N  -0.232391    2.312876    -2.897869
C  2.381271    0.483468    0.265365
N  -2.486405    2.070825    -2.726354
C  2.150199    -0.893367    0.172552
C  -1.467573    1.297128    -4.739789
C  1.260091    -2.903939    -1.061621
N  2.160668    0.892729    2.658162
C  -1.158066    -3.434519    -1.349695
N  1.582027    0.901014    4.848724
C  -3.433215    -3.161416    -1.658481
C  3.837625    1.490267    4.312904
C  -3.427589    -4.003769    -2.753049
C  -2.227445    -4.595679    -3.157225
C  -4.672472    -2.459775    -1.197627
C  -2.205933    -5.526220    -4.328318
C  0.552569    -1.148473    -3.273327
C  1.589215    -1.536146    -4.331807
C  1.079121    1.722724    -3.090238
C  -1.388975    1.860132    -3.457079
C  -3.673660    1.708683    -3.190386
C  -3.824069    1.098558    -4.425520
C  -2.698892    0.899703    -5.224571
C  -4.852285    1.995447    -2.310409
C  -2.833402    0.264870    -6.574348
C  2.218669    2.826766    -0.654040
C  3.639141    3.234198    -1.057094
C  3.035958    1.027298    1.516210
C  2.538188    1.110346    3.938017
C  1.853462    1.063469    6.138145
C  3.105292    1.449226    6.584483
C  4.122719    1.662520    5.652147
C  0.721792    0.786100    7.079989
C  5.488143    2.071064    6.112301
C  2.554854    -1.802971    1.308678
C  3.967655    -2.356846    1.098136
H  -0.319960    -2.558543    0.226828
H  -0.385634    2.683069    -1.968158
H  1.161544    0.863683    2.501295
H  -4.340582    -4.206349    -3.290609
H  -4.800991    0.797235    -4.771612
H  3.297335    1.578664    7.638426
H  1.337308    -3.267704    -2.083759
H  1.963318    -3.482409    -0.459916
H  -4.704906    -2.420632    -0.111306
H  -5.561751    -2.958056    -1.573248
H  -4.663910    -1.434945    -1.570629
H  -2.601138    -5.028070    -5.212558
H  -2.834437    -6.392976    -4.127652
H  -1.196021    -5.868670    -4.538852
H  -0.151506    -0.430238    -3.686501
H  -0.042437    -2.022438    -3.018661
H  1.094287    -1.941767    -5.212002
H  2.276118    -2.286537    -3.945544
H  2.182159    -0.675505    -4.633713
H  1.811755    2.531153    -3.168889
H  1.093545    1.193012    -4.038580
H  -5.492189    2.741935    -2.779057
H  -4.513498    2.376499    -1.351601
H  -5.444810    1.094921    -2.157696
H  -3.105462    -0.785012    -6.464838
H  -1.900885    0.324557    -7.130216
H  -3.618552    0.753808    -7.148329
H  2.007543    3.139906    0.368681
H  1.511841    3.367925    -1.279211
H  4.384448    2.725843    -0.449890
H  3.770213    4.307663    -0.939587
H  3.830992    2.976205    -2.096864
H  3.951522    0.456060    1.712066
H  3.331977    2.071852    1.386009
H  0.509345    -0.282181    7.087709
H  -0.175575    1.299664    6.741399
H  0.965463    1.106836    8.089042
H  5.915880    1.296862    6.748408
H  4.695132    -1.550797    1.033845
H  5.430231    2.987310    6.698394
H  4.243210    -3.001831    1.929244
H  6.153286    2.235973    5.268203
H  1.853530    -2.630593    1.407203
H  2.516322    -1.264003    2.252178
H  4.033575    -2.932053    0.176563
H  4.599364    1.655576    3.567917
H  -0.586439    1.193481    -5.354594
H  -0.139723    -4.760193    -2.714611
C  -1.157090    2.225275    1.994687
C  -1.308538    1.747058    0.543250
C  -2.074620    0.422362    0.415746
C  -1.710248    -0.582206    1.520275
C  -1.768231    0.115410    2.881679
O  -0.854016    1.187278    2.896773
O  -1.951048    2.776918    -0.147615
O  -1.767219    -0.081692    -0.864801
O  -2.601978    -1.664866    1.534987
C  -1.383024    -0.840589    4.025797
O  -0.038369    -1.202141    4.000943
H  -2.189607    2.463433    -1.062984
H  -2.127296    -0.983534    -0.943827
H  0.492152    -0.410419    4.252031
H  -0.294462    1.569340    0.151140
H  -3.155697    0.630165    0.494457
H  -0.668791    -0.913080    1.366833
H  -2.793873    0.481579    3.046883
H  -2.527581    -2.156791    0.684630
H  -1.646337    -0.361391    4.978429
H  -1.972638    -1.752864    3.906757
O  -0.103286    3.125419    2.019994
H  -2.105080    2.713381    2.303462
C  0.051752    3.792902    3.258574
H  0.881826    4.483578    3.126075
H  -0.855791    4.350879    3.512987
H  0.280761    3.083681    4.057934
