3
 ** Energy =   0.001578 Eh ** Charge = 0 ** Spin = 0 ** Curcuma 0.1 (0.0.189-24-gc4b0357)
O  0.000000    0.000000    0.119262
H  0.000000    0.763239    -0.477047
H  0.000000    -0.763239    -0.477047
3
 ** Energy =   0.027426 Eh ** Charge = 0 ** Spin = 0 ** Curcuma 0.1 (0.0.189-24-gc4b0357)
O  0.000000    0.000000    0.080155
H  0.000000    1.115167    -0.457493
H  0.000000    -1.115167    -0.457493
3
 ** Energy =   0.000319 Eh ** Charge = 0 ** Spin = 0 ** Curcuma 0.1 (0.0.189-24-gc4b0357)
O  0.000000    0.000000    0.087295
H  0.000000    0.839494    -0.461064
H  0.000000    -0.839494    -0.461064
3
 ** Energy =   0.000008 Eh ** Charge = 0 ** Spin = 0 ** Curcuma 0.1 (0.0.189-24-gc4b0357)
O  0.000000    0.000000    0.112094
H  0.000000    0.827145    -0.473463
H  0.000000    -0.827145    -0.473463
3
 ** Energy =   0.000000 Eh ** Charge = 0 ** Spin = 0 ** Curcuma 0.1 (0.0.189-24-gc4b0357)
O  0.000000    0.000000    0.108644
H  0.000000    0.829195    -0.471738
H  0.000000    -0.829195    -0.471738
