3
 ** Energy =   0.000000 Eh ** Charge = 0 ** Spin = 0 ** Curcuma 0.1 (0.0.189-24-gc4b0357)
O  0.000000    0.000000    0.108644
H  0.000000    0.829195    -0.471738
H  0.000000    -0.829195    -0.471738
