2
 ** Energy =   0.265560 Eh ** Charge = 0 ** Spin = 0 ** Curcuma 0.1 (0.0.189-24-gc4b0357)
H  -0.092881    0.361653    -0.249341
H  0.000000    0.763239    -0.477047
