      -----------------------------------------------------------      
     |                   =====================                   |     
     |                           x T B                           |     
     |                   =====================                   |     
     |                         S. Grimme                         |     
     |          Mulliken Center for Theoretical Chemistry        |     
     |                    University of Bonn                     |     
      -----------------------------------------------------------      

   * xtb version 6.6.1 (8d0f1dd) compiled by 'stahn@M-Bot' on 2023-08-01

   xtb is free software: you can redistribute it and/or modify it under
   the terms of the GNU Lesser General Public License as published by
   the Free Software Foundation, either version 3 of the License, or
   (at your option) any later version.
   
   xtb is distributed in the hope that it will be useful,
   but WITHOUT ANY WARRANTY; without even the implied warranty of
   MERCHANTABILITY or FITNESS FOR A PARTICULAR PURPOSE.  See the
   GNU Lesser General Public License for more details.
   
   Cite this work as:
   * C. Bannwarth, E. Caldeweyher, S. Ehlert, A. Hansen, P. Pracht,
     J. Seibert, S. Spicher, S. Grimme, WIREs Comput. Mol. Sci., 2020, 11,
     e01493. DOI: 10.1002/wcms.1493
   
   for GFN2-xTB:
   * C. Bannwarth, S. Ehlert and S. Grimme., J. Chem. Theory Comput., 2019,
     15, 1652-1671. DOI: 10.1021/acs.jctc.8b01176
   for GFN1-xTB:
   * S. Grimme, C. Bannwarth, P. Shushkov, J. Chem. Theory Comput., 2017,
     13, 1989-2009. DOI: 10.1021/acs.jctc.7b00118
   for GFN0-xTB:
   * P. Pracht, E. Caldeweyher, S. Ehlert, S. Grimme, ChemRxiv, 2019, preprint.
     DOI: 10.26434/chemrxiv.8326202.v1
   for GFN-FF:
   * S. Spicher and S. Grimme, Angew. Chem. Int. Ed., 2020, 59, 15665-15673.
     DOI: 10.1002/anie.202004239
   
   for ALPB and GBSA implicit solvation:
   * S. Ehlert, M. Stahn, S. Spicher, S. Grimme, J. Chem. Theory Comput.,
     2021, 17, 4250-4261. DOI: 10.1021/acs.jctc.1c00471
   
   for DFT-D4:
   * E. Caldeweyher, C. Bannwarth and S. Grimme, J. Chem. Phys., 2017,
     147, 034112. DOI: 10.1063/1.4993215
   * E. Caldeweyher, S. Ehlert, A. Hansen, H. Neugebauer, S. Spicher,
     C. Bannwarth and S. Grimme, J. Chem. Phys., 2019, 150, 154122.
     DOI: 10.1063/1.5090222
   * E. Caldeweyher, J.-M. Mewes, S. Ehlert and S. Grimme, Phys. Chem. Chem. Phys.
     2020, 22, 8499-8512. DOI: 10.1039/D0CP00502A
   
   for sTDA-xTB:
   * S. Grimme and C. Bannwarth, J. Chem. Phys., 2016, 145, 054103.
     DOI: 10.1063/1.4959605
   
   in the mass-spec context:
   * V. Asgeirsson, C. Bauer and S. Grimme, Chem. Sci., 2017, 8, 4879.
     DOI: 10.1039/c7sc00601b
   * J. Koopman and S. Grimme, ACS Omega 2019, 4, 12, 15120-15133.
     DOI: 10.1021/acsomega.9b02011
   
   for metadynamics refer to:
   * S. Grimme, J. Chem. Theory Comput., 2019, 155, 2847-2862
     DOI: 10.1021/acs.jctc.9b00143
   
   for SPH calculations refer to:
   * S. Spicher and S. Grimme, J. Chem. Theory Comput., 2021, 17, 1701-1714
     DOI: 10.1021/acs.jctc.0c01306
   
   with help from (in alphabetical order)
   P. Atkinson, C. Bannwarth, F. Bohle, G. Brandenburg, E. Caldeweyher
   M. Checinski, S. Dohm, S. Ehlert, S. Ehrlich, I. Gerasimov, C. Hölzer
   A. Katbashev, J. Koopman, C. Lavigne, S. Lehtola, F. März, M. Müller,
   F. Musil, H. Neugebauer, J. Pisarek, C. Plett, P. Pracht, F. Pultar,
   J. Seibert, P. Shushkov, S. Spicher, M. Stahn, M. Steiner, T. Strunk,
   J. Stückrath, T. Rose, and J. Unsleber
   
 * started run on 2025/11/23 at 21:36:45.320     

           -------------------------------------------------
          |                Calculation Setup                |
           -------------------------------------------------

          program call               : /home/conrad/Downloads/xtb-6.6.1/bin/xtb HH.xyz --gfnff --opt
          coordinate file            : HH.xyz
          omp threads                :                    16

   ID    Z sym.   atoms
    1    1 H      1, 2
          GFN-FF topology read from file successfully!
           ------------------------------------------------- 
          |                   G F N - F F                   |
          |          A general generic force-field          |
          |                  Version 1.0.3                  | 
           ------------------------------------------------- 
          Number of HB bonds (bound hydrogen)     0
          Number of HB bonds (unbound hydrogen)   0
          Number of XB bonds                      0

 E+G (total)                   0 d,  0 h,  0 min,  0.003 sec
 distance/D3 list               ...        0 min,  0.000 sec (  0.078%)
 non bonded repulsion           ...        0 min,  0.000 sec (  5.580%)
 dCN                            ...        0 min,  0.000 sec (  0.252%)
 EEQ energy and q               ...        0 min,  0.002 sec ( 70.648%)
 D3                             ...        0 min,  0.000 sec (  6.197%)
 EEQ gradient                   ...        0 min,  0.000 sec (  6.015%)
 bonds                          ...        0 min,  0.000 sec (  9.483%)
 bend and torsion               ...        0 min,  0.000 sec (  0.070%)
 bonded ATM                     ...        0 min,  0.000 sec (  0.070%)
 HB/XB (incl list setup)        ...        0 min,  0.000 sec (  0.765%)

         :::::::::::::::::::::::::::::::::::::::::::::::::::::
         ::                     SUMMARY                     ::
         :::::::::::::::::::::::::::::::::::::::::::::::::::::
         :: total energy               0.050469788228 Eh    ::
         :: gradient norm              1.571331599718 Eh/a0 ::
         ::.................................................::
         :: bond energy               -0.164952024621 Eh    ::
         :: angle energy               0.000000000000 Eh    ::
         :: torsion energy             0.000000000000 Eh    ::
         :: repulsion energy           0.215468972820 Eh    ::
         :: electrostat energy        -0.000000000000 Eh    ::
         :: dispersion energy         -0.000047159971 Eh    ::
         :: HB energy                  0.000000000000 Eh    ::
         :: XB energy                  0.000000000000 Eh    ::
         :: bonded atm energy          0.000000000000 Eh    ::
         :: external energy            0.000000000000 Eh    ::
         :: add. restraining           0.000000000000 Eh    ::
         :: total charge              -0.000000000000 e     ::
         :::::::::::::::::::::::::::::::::::::::::::::::::::::

      ----------------------------------------------------------- 
     |                   =====================                   |
     |                        A N C O P T                        |
     |                   =====================                   |
     |               Approximate Normal Coordinate               |
     |                Rational Function Optimizer                |
      ----------------------------------------------------------- 

          ...................................................
          :                      SETUP                      :
          :.................................................:
          :   optimization level            normal          :
          :   max. optcycles                   200          :
          :   ANC micro-cycles                  20          :
          :   degrees of freedom                 1          :
          :.................................................:
          :   RF solver                   davidson          :
          :   write xtbopt.log                true          :
          :   linear (good luck)              true          :
          :   energy convergence         0.5000000E-05 Eh   :
          :   grad. convergence          0.1000000E-02 Eh/α :
          :   maxmium RF displ.          1.0000000          :
          :   Hlow (freq-cutoff)         0.1000000E-01      :
          :   Hmax (freq-cutoff)         5.0000000          :
          :   S6 in model hess.         20.0000000          :
          ...................................................

generating ANC from model Hessian ...
Using GFN-FF Lindh-Hessian
 Shifting diagonal of input Hessian by   0.000000000000000E+000
 Lowest  eigenvalues of input Hessian
    0.000000    0.000000    0.000000    0.000000    0.000000    2.522530
 Highest eigenvalues
    0.000000    0.000000    0.000000    0.000000    0.000000    2.522530
 

........................................................................
.............................. CYCLE    1 ..............................
........................................................................
     iter. time                 ...        0 min,  0.001 sec
 * total energy  :     0.0504698 Eh     change        0.0000000E+00 Eh
   gradient norm :     1.5713316 Eh/α   predicted     0.0000000E+00 (    NaN%)
   displ. norm   :     0.4796235 α      lambda       -0.7536476E+00
   maximum displ.:     0.4796235 α      in ANC's #1, #1, #1, ...

........................................................................
.............................. CYCLE    2 ..............................
........................................................................
     iter. time                 ...        0 min,  0.001 sec
 * total energy  :    -0.1598690 Eh     change       -0.2103388E+00 Eh
   gradient norm :     0.1143984 Eh/α   predicted    -0.4635078E+00 ( 120.36%)
   displ. norm   :     0.0325142 α      lambda       -0.3719573E-02
   maximum displ.:     0.0325142 α      in ANC's #1, #1, #1, ...

........................................................................
.............................. CYCLE    3 ..............................
........................................................................
     iter. time                 ...        0 min,  0.001 sec
 * total energy  :    -0.1627427 Eh     change       -0.2873737E-02 Eh
   gradient norm :     0.0614888 Eh/α   predicted    -0.1861753E-02 ( -35.21%)
   displ. norm   :     0.0377325 α      lambda       -0.2320121E-02
   maximum displ.:     0.0377325 α      in ANC's #1, #1, #1, ...

........................................................................
.............................. CYCLE    4 ..............................
........................................................................
     iter. time                 ...        0 min,  0.001 sec
 * total energy  :    -0.1638524 Eh     change       -0.1109668E-02 Eh
   gradient norm :     0.0025768 Eh/α   predicted    -0.1161713E-02 (   4.69%)
   displ. norm   :     0.0015176 α      lambda       -0.3912651E-05
   maximum displ.:     0.0015176 α      in ANC's #1, #1, #1, ...

........................................................................
.............................. CYCLE    5 ..............................
........................................................................
     iter. time                 ...        0 min,  0.001 sec
 * total energy  :    -0.1638544 Eh     change       -0.1974977E-05 Eh
   gradient norm :     0.0000253 Eh/α   predicted    -0.1955294E-05 (  -1.00%)
   displ. norm   :     0.0000225 α      lambda        0.2233487E-08
   maximum displ.:     0.0000225 α      in ANC's #1, #1, #1, ...

   *** GEOMETRY OPTIMIZATION CONVERGED AFTER 5 ITERATIONS ***

------------------------------------------------------------------------
 total energy gain   :        -0.2143242 Eh     -134.4904 kcal/mol
 total RMSD          :         0.2905463 a0        0.1538 Å
 total power (kW/mol):      -112.5416075 (step)********** (real)
------------------------------------------------------------------------

 ANCopt (total)                0 d,  0 h,  0 min,  0.005 sec
 optimizer setup                ...        0 min,  0.000 sec (  2.404%)
 model hessian                  ...        0 min,  0.000 sec (  0.681%)
 ANC generation                 ...        0 min,  0.000 sec (  2.301%)
 coordinate transformation      ...        0 min,  0.000 sec (  0.425%)
 single point calculation       ...        0 min,  0.003 sec ( 62.659%)
 optimization log               ...        0 min,  0.000 sec (  2.212%)
 hessian update                 ...        0 min,  0.000 sec (  8.137%)
 rational function              ...        0 min,  0.000 sec (  5.510%)

================
 final structure:
================
2
 xtb: 6.6.1 (8d0f1dd)
H           -0.12320686909651        0.23053420856803       -0.17499444528492
H            0.03032586909651        0.89435779143197       -0.55139355471508
 
 Bond Distances (Angstroems)
 ---------------------------
H1-H2=0.7784         H2-H1=0.7784         
 H  H  Rav=0.7784 sigma=0.0000  Rmin=0.7784  Rmax=0.7784     1
 
 selected bond angles (degree)
 --------------------

 
 selected dihedral angles (degree)
 ---------------------------------

           -------------------------------------------------
          |                Final Singlepoint                |
           -------------------------------------------------
         :::::::::::::::::::::::::::::::::::::::::::::::::::::
         ::                     SUMMARY                     ::
         :::::::::::::::::::::::::::::::::::::::::::::::::::::
         :: total energy              -0.163854384167 Eh    ::
         :: gradient norm              0.000025258444 Eh/a0 ::
         ::.................................................::
         :: bond energy               -0.174573883763 Eh    ::
         :: angle energy               0.000000000000 Eh    ::
         :: torsion energy             0.000000000000 Eh    ::
         :: repulsion energy           0.010769311348 Eh    ::
         :: electrostat energy         0.000000000000 Eh    ::
         :: dispersion energy         -0.000049811752 Eh    ::
         :: HB energy                  0.000000000000 Eh    ::
         :: XB energy                  0.000000000000 Eh    ::
         :: bonded atm energy          0.000000000000 Eh    ::
         :: external energy            0.000000000000 Eh    ::
         :: add. restraining           0.000000000000 Eh    ::
         :: total charge               0.000000000000 e     ::
         :::::::::::::::::::::::::::::::::::::::::::::::::::::

           -------------------------------------------------
          |                Property Printout                |
           -------------------------------------------------
           -------------------------------------------------
          |                Geometry Summary                 |
           -------------------------------------------------

      molecular mass/u    :        2.0158815
   center of mass at/Å    :       -0.0464405       0.5624461      -0.3631940
  moments of inertia/u·Å² :       -0.8732175E-17   0.3053609E+00   0.3053609E+00
rotational constants/cm⁻¹ :       -0.1930519E+19   0.5520560E+02   0.5520560E+02

 * 1 selected distances

     #   Z          #   Z                                           value/Å
     0   0          0   0                                         0.0000000 (max)

 * 0 distinct bonds (by element types)

   Z      Z             #   av. dist./Å        max./Å        min./Å


optimized geometry written to: xtbopt.xyz


           -------------------------------------------------
          | TOTAL ENERGY               -0.163854384167 Eh   |
          | GRADIENT NORM               0.000025258444 Eh/α |
           -------------------------------------------------

------------------------------------------------------------------------
 * finished run on 2025/11/23 at 21:36:45.334     
------------------------------------------------------------------------
 total:
 * wall-time:     0 d,  0 h,  0 min,  0.014 sec
 *  cpu-time:     0 d,  0 h,  0 min,  0.156 sec
 * ratio c/w:    11.416 speedup
 SCF:
 * wall-time:     0 d,  0 h,  0 min,  0.003 sec
 *  cpu-time:     0 d,  0 h,  0 min,  0.042 sec
 * ratio c/w:    13.363 speedup
 ANC optimizer:
 * wall-time:     0 d,  0 h,  0 min,  0.007 sec
 *  cpu-time:     0 d,  0 h,  0 min,  0.093 sec
 * ratio c/w:    13.655 speedup

