2
 energy: -0.163854384167 gnorm: 0.000025258444 xtb: 6.6.1 (8d0f1dd)
H           -0.12320686909651        0.23053420856803       -0.17499444528492
H            0.03032586909651        0.89435779143197       -0.55139355471508
