90
 ** Energy = 0 Eh **
C      1.37066924641      -1.68558103454      1.15183491271
C      0.819213630454      -1.56295343716      2.43236819253
C      -0.548928950533      -1.78845779047      2.61639013139
C      -1.35901672607      -2.11088812978      1.52301373083
C      -0.821104130109      -2.10703858212      0.232546324326
C      0.547840767053      -1.89996687116      0.041645719551
C      1.13138098359      -1.97156780705      -1.34656206105
C      1.4042005986      -3.4239666728      -1.74578049218
H      1.81774824783      -3.46615739633      -2.75103004618
H      0.488898884061      -4.01100488209      -1.72308399477
H      2.1135686625      -3.8864841547      -1.06083886606
H      2.05520983047      -1.40328861247      -1.41116628002
H      0.449170179617      -1.50601189095      -2.05773767301
C      -1.76983639915      -2.1883754388      -0.948646847755
N      -2.4676084891      -0.924167538618      -1.11239756156
C      -1.95129250406      0.102842471376      -1.85009062282
N      -0.994178442664      -0.173644590467      -2.73103896646
C      -0.517653044741      0.802707413777      -3.49646201703
C      -0.992065745008      2.10037739545      -3.42524051104
C      -2.00374692188      2.40746544033      -2.51284385415
C      -2.48773598858      1.39259542741      -1.71521404406
H      -3.26464187047      1.57368409966      -0.988043522733
C      -2.52479853108      3.80744149523      -2.40370982565
H      -2.74667210255      4.20995550342      -3.39070179495
H      -3.42694223068      3.84088666119      -1.79786555548
H      -1.77328850355      4.45000967283      -1.94397661535
H      -0.58883731888      2.86561883266      -4.07156688962
C      0.593327774388      0.423596446412      -4.42781146628
H      1.54679698763      0.520794287196      -3.90700387087
H      0.608150109598      1.07257429566      -5.29987059534
H      0.480773994272      -0.61121679423      -4.7411571958
H      -3.01229019483      -0.626089944987      -0.315489385927
H      -1.25293064813      -2.38044550623      -1.88315144451
H      -2.5124193894      -2.9771210875      -0.809332178972
C      -2.78480402933      -2.56238424944      1.7448245248
C      -2.80805937598      -4.08542398699      1.91099396145
H      -2.19235459948      -4.38976316928      2.75476113207
H      -3.82494929283      -4.43336453569      2.08035129553
H      -2.41760878099      -4.57423275168      1.02107378981
H      -3.42858275895      -2.28865123764      0.911696077911
H      -3.21808715326      -2.10089781765      2.62698851724
C      -1.2027464604      -1.59813798601      3.97077399722
N      -2.18125444838      -0.516825370996      3.98068340098
C      -2.20908047308      0.533671071245      3.09945560756
N      -3.43678006285      0.9907605512      2.83794409638
C      -3.57602989837      2.04606788937      2.04829358611
C      -2.49339742272      2.68060285753      1.45605644509
C      -1.20800004774      2.21322116217      1.71246311385
C      -1.06574891985      1.12973807729      2.56320568743
H      -0.0851995512141      0.76348939356      2.81052174903
C      -0.00762049204202      2.86341564836      1.10268772331
H      -0.285766624198      3.77776440503      0.584807093949
H      0.474084544417      2.19578773189      0.387407614217
H      0.726509153835      3.10485358628      1.86993568437
H      -2.64921705872      3.5332127797      0.812852957217
C      -4.97885717596      2.52202119917      1.81018834055
H      -5.67778010855      1.87712848279      2.3346422819
H      -5.21201958064      2.51293852068      0.746068667275
H      -5.09548285997      3.5426587884      2.17123840852
H      -3.11473840061      -0.7649695887      4.27573195315
H      -0.459073281458      -1.39555293377      4.74410988217
H      -1.71412320774      -2.51888788393      4.26427318354
C      1.70926114224      -1.22779082011      3.6090480217
C      2.15926973425      -2.49944299607      4.33216418185
H      1.3014813041      -3.05425313824      4.70530892546
H      2.80453449012      -2.25106113218      5.17222892177
H      2.70833000566      -3.14929465146      3.6541795543
H      1.18740640501      -0.579324717116      4.31404930088
H      2.58652630993      -0.671672827551      3.28345007629
C      2.852673637      -1.43280720353      0.952269228864
N      3.08106550471      -0.00711335353264      0.749063587231
C      3.27288157682      0.555630037707      -0.487450047893
N      2.66948418842      1.72777800781      -0.672588321238
C      2.84078367627      2.37192265358      -1.82044796138
C      3.62513600306      1.862343685      -2.842980283
C      4.28055502534      0.644454876449      -2.6590669643
C      4.10634004551      -0.0164892374589      -1.45880946112
H      4.61637018282      -0.948140289528      -1.26597942227
C      5.14570102571      0.0810863048359      -3.74371470321
H      5.93289892076      0.787759019958      -4.00293895738
H      4.55319187055      -0.0998665218895      -4.64020465125
H      5.6034182451      -0.854788491436      -3.43282878002
H      3.73671403194      2.40456365237      -3.76984521001
C      2.10257130895      3.66674748227      -1.96595888389
H      2.5299960494      4.27229597687      -2.76073490919
H      1.05981460017      3.45714660128      -2.20321379342
H      2.1295491164      4.21538301169      -1.02819089542
H      2.45837551688      0.570264254752      1.3024297046
H      3.42909182393      -1.76359766697      1.82004541081
H      3.23238486097      -1.98609443056      0.0967007269071
