1410
 ** Energy =  28.415956 Eh ** Charge = 0 ** Spin = 0 ** Curcuma 0.1 (0.0.142)
O  221.200787    -82.662321    224.085360
C  222.181499    -83.608530    224.462940
C  221.516645    -84.936618    224.728769
O  221.787040    -85.326826    226.065780
C  220.678120    -85.054303    226.904430
C  221.098980    -85.209117    228.349717
O  222.514879    -85.291690    228.415218
C  223.088050    -84.015438    228.653620
C  224.533187    -84.049141    228.222173
O  225.203713    -82.926768    228.769409
C  226.528682    -82.844038    228.269399
C  227.231341    -81.697086    228.955261
O  226.274352    -80.942764    229.678313
C  226.893237    -80.243993    230.745573
C  225.987511    -79.110647    231.176369
O  224.743501    -79.238521    230.508022
C  223.758938    -79.810095    231.357351
C  222.589493    -80.225747    230.502046
O  222.976381    -80.116927    229.146469
C  221.856051    -80.225215    228.291984
C  222.361539    -80.356155    226.881432
O  223.625581    -81.001312    226.912994
C  224.297045    -80.879674    225.668916
C  225.388841    -79.845269    225.804833
O  225.334217    -79.286670    227.107346
C  226.275922    -78.234411    227.250453
C  225.524839    -76.947395    227.491237
O  224.136565    -77.198082    227.344485
C  223.373923    -76.059403    227.708365
C  222.781076    -76.282910    229.078160
O  221.394217    -76.516788    228.938206
C  220.725587    -76.313105    230.170370
C  219.367521    -76.978204    230.098035
O  219.132012    -77.402818    228.763685
C  218.446957    -76.410057    228.012301
C  218.797301    -76.601291    226.559989
O  218.587955    -77.959570    226.216493
C  219.345370    -78.310038    225.070494
C  218.516294    -79.224906    224.200373
O  217.139040    -79.001215    224.461756
C  216.622278    -77.983363    223.614517
C  215.299417    -77.519764    224.168987
O  215.054982    -78.197221    225.387434
C  213.721237    -77.985860    225.817061
C  213.654842    -78.241778    227.301236
O  214.945335    -78.610789    227.750538
C  215.016990    -78.555584    229.163280
C  216.186390    -79.394203    229.609782
O  216.789009    -79.970620    228.462387
C  217.924690    -80.737387    228.820832
C  218.436304    -81.442416    227.590210
O  217.340210    -81.764768    226.751052
C  217.684792    -82.824382    225.875303
C  216.615353    -82.957776    224.817661
O  215.353066    -83.047372    225.455117
C  214.423399    -82.134959    224.892760
C  213.119189    -82.249820    225.653620
O  213.326455    -83.043034    226.813091
C  213.694150    -82.243237    227.931249
C  214.422371    -83.124782    228.917711
O  215.071319    -84.156550    228.197169
C  216.107649    -84.740535    228.965463
C  216.569933    -85.986523    228.251025
O  215.969922    -86.010492    226.966205
C  216.758191    -86.753421    226.054832
C  215.964900    -86.956245    224.790459
O  214.781166    -86.182828    224.867153
C  214.249754    -85.972459    223.573526
C  212.754683    -85.804239    223.680618
O  212.364393    -84.691606    222.899024
C  210.990512    -84.773961    222.566016
C  210.488496    -83.383840    222.258897
O  211.592685    -82.495860    222.242326
C  211.165882    -81.166133    222.476614
C  212.287035    -80.225807    222.105637
O  213.246296    -80.933811    221.341805
C  214.496833    -80.272718    221.388340
C  215.375010    -80.804563    220.280117
O  216.167880    -81.870445    220.783298
C  217.488148    -81.431251    221.054642
C  218.268994    -82.567258    221.660026
O  219.101703    -83.127446    220.664026
C  220.043893    -84.011369    221.239193
C  220.253139    -85.169175    220.297251
O  219.421465    -86.244798    220.703500
C  220.179865    -87.260660    221.334743
C  219.238389    -88.212067    222.024833
O  219.932245    -88.850451    223.085132
C  219.471404    -88.389447    224.342719
C  220.343390    -88.978878    225.426093
O  221.625983    -88.377756    225.368383
C  222.364020    -88.673913    226.542336
C  223.842242    -88.519970    226.254194
O  224.084781    -87.222378    225.733656
C  225.472787    -87.027013    225.510483
C  225.688899    -85.650792    224.928051
O  226.242828    -85.778695    223.629863
C  226.911304    -84.585285    223.254754
C  226.778957    -84.400648    221.761470
O  227.109414    -85.616895    221.111172
C  226.683344    -85.594258    219.756646
C  225.329623    -86.255156    219.663019
O  225.192977    -87.159502    220.746153
C  223.878504    -87.115990    221.267036
C  223.711875    -88.234940    222.261746
O  222.975340    -89.280070    221.654214
C  223.009959    -90.445074    222.458689
C  221.923225    -91.381449    221.994110
O  221.377926    -90.880422    220.787571
C  220.633002    -91.886407    220.127396
C  219.613354    -91.224565    219.236139
O  220.150602    -90.005195    218.749180
C  219.174996    -89.289729    218.009236
C  219.791431    -88.008008    217.492876
O  221.157883    -87.959914    217.862872
C  221.757332    -86.752326    217.414583
C  222.523866    -87.026533    216.153130
O  223.621698    -86.138270    216.091457
C  224.303939    -86.275647    214.862069
C  225.466917    -85.316867    214.848099
O  226.068060    -85.320192    216.135990
C  227.443700    -84.975651    216.069450
C  228.255930    -86.250896    215.991527
O  227.383971    -87.354569    216.170315
C  228.100738    -88.501757    216.587524
C  227.271229    -89.728552    216.276994
O  226.512120    -90.075752    217.426697
C  225.146168    -89.732667    217.255544
C  224.386792    -90.035858    218.534599
O  223.827970    -91.340665    218.442861
C  224.650253    -92.304557    219.089328
C  224.380151    -93.667884    218.490112
O  225.331094    -93.909284    217.460864
C  224.766467    -93.706896    216.172662
C  225.887305    -93.487742    215.185347
O  225.523076    -92.432783    214.307678
C  226.442172    -92.325624    213.229140
C  225.805549    -92.908078    211.983926
O  224.529182    -93.427924    212.327068
C  224.328877    -94.713914    211.761948
C  222.963616    -95.205606    212.175677
O  222.604232    -94.557260    213.382718
C  221.569188    -95.258611    214.050411
C  221.100125    -94.407432    215.197357
O  221.460550    -93.067492    214.918157
C  221.005480    -92.195837    215.933167
C  221.443887    -90.800718    215.580093
O  222.538704    -90.889595    214.682991
C  222.410030    -89.963518    213.618742
C  223.773761    -89.735618    213.025358
O  223.805976    -88.454682    212.416174
C  225.085672    -88.191066    211.856934
C  225.044745    -88.475339    210.375487
O  223.691238    -88.532422    209.952062
C  223.595262    -89.072432    208.642479
C  223.114379    -90.504786    208.736519
O  222.086972    -90.586070    209.709761
C  221.855204    -91.937258    210.072174
C  220.387949    -92.121894    210.368071
O  220.255815    -93.011150    211.464593
C  218.899481    -93.137528    211.854709
C  218.676563    -92.331333    213.105643
O  217.547540    -91.495021    212.910881
C  217.292665    -90.698500    214.057515
C  217.607561    -89.258649    213.734067
O  218.719440    -89.209548    212.856878
C  219.223819    -87.891249    212.779098
C  220.016999    -87.741831    211.500785
O  219.290535    -88.324934    210.436206
C  219.711861    -87.775352    209.201732
C  219.361542    -88.736969    208.093881
O  218.385273    -89.640440    208.573187
C  217.689117    -90.244055    207.497919
C  216.856907    -91.379678    208.041451
O  215.726370    -90.845273    208.715161
C  215.845509    -91.000767    210.122624
C  214.635433    -90.381033    210.772522
O  214.236480    -89.262165    209.995730
C  212.954573    -88.801653    210.385242
C  211.919068    -89.384713    209.456160
O  212.567962    -90.019759    208.367844
C  211.633391    -90.740544    207.577941
C  211.711489    -92.210699    207.932623
O  212.897573    -92.752241    207.376483
C  213.461414    -93.709345    208.253250
C  214.540115    -94.471899    207.521449
O  215.715853    -94.472282    208.311604
C  216.568148    -95.537592    207.931998
C  217.902148    -95.357409    208.615004
O  218.115750    -96.441976    209.499396
C  219.495275    -96.582734    209.788205
C  219.641866    -97.365924    211.070206
O  218.558405    -97.041606    211.925408
C  218.557051    -97.871959    213.074152
C  217.535701    -97.338146    214.049700
O  217.349361    -95.955533    213.803369
C  216.662561    -95.346710    214.881856
C  215.884953    -94.168805    214.358313
O  214.500445    -94.468035    214.428247
C  213.750606    -93.590369    213.603185
C  213.614048    -94.202781    212.228717
O  213.859487    -95.596129    212.326102
C  214.635626    -96.043531    211.229858
C  214.576157    -97.543751    211.177730
O  215.738766    -98.031323    210.529248
C  215.759893    -99.447163    210.548644
C  216.687869    -99.946340    209.468741
O  216.346568    -99.327510    208.239848
C  217.448472    -99.366905    207.349596
C  216.951140    -99.196762    205.932591
O  215.837012    -98.322451    205.931665
C  215.169230    -98.377530    204.682102
C  214.341247    -97.126825    204.517024
O  213.168766    -97.249308    205.300332
C  212.240758    -96.230467    204.971022
C  211.258225    -96.097814    206.106814
O  211.794160    -96.757605    207.242562
C  210.828204    -96.863647    208.273902
C  210.209893    -98.241232    208.217299
O  211.072598    -99.103042    207.489588
C  211.874261    -99.876918    208.365698
C  213.011201    -100.476984    207.584257
O  212.510413    -101.532939    206.785806
C  213.572494    -102.259278    206.188414
C  213.287991    -102.391122    204.712953
O  212.530949    -101.268192    204.299164
C  212.642442    -101.074269    202.900538
C  211.589598    -100.079840    202.466136
O  210.390678    -100.337107    203.184382
C  210.047287    -99.237064    204.011941
C  208.804033    -99.587674    204.795394
O  209.144432    -100.531115    205.797841
C  207.977198    -101.050437    206.413076
C  208.355713    -101.646592    207.748896
O  209.411303    -102.572881    207.555675
C  209.488602    -103.470653    208.649182
C  210.825278    -104.171559    208.614515
O  211.736611    -103.469904    209.442321
C  212.810958    -104.313881    209.819451
C  213.998568    -103.456567    210.191146
O  213.527696    -102.253598    210.774962
C  213.831744    -102.204816    212.158931
C  213.181679    -100.975696    212.741148
O  212.574946    -100.247565    211.683721
C  211.443462    -99.521036    212.128987
C  210.216498    -100.364237    211.898610
O  209.139083    -99.520597    211.547033
C  207.933789    -100.256461    211.458602
C  206.902023    -99.392377    210.786301
O  205.952989    -98.987330    211.754950
C  204.788166    -98.483069    211.129962
C  203.951932    -97.782380    212.171576
O  204.002598    -96.387483    211.932701
C  203.916659    -95.668732    213.150067
C  203.648674    -94.213315    212.832965
O  204.105758    -93.937744    211.515438
C  205.447554    -93.465355    211.515015
C  206.096583    -93.869837    210.207076
O  207.474084    -94.125716    210.431617
C  207.724904    -95.515854    210.556410
C  209.094320    -95.702146    211.161292
O  209.028722    -95.369871    212.537300
C  210.264402    -95.627345    213.185273
C  210.037404    -96.651635    214.264277
O  209.030882    -97.551652    213.831195
C  208.705901    -98.484148    214.848265
C  207.237377    -98.364079    215.159779
O  206.634792    -99.635106    215.007267
C  205.419388    -99.695906    215.728564
C  204.555525    -100.780427    215.129188
O  205.153941    -101.236558    213.926256
C  204.179759    -101.838349    213.091550
C  204.870668    -102.582108    211.969549
O  206.068668    -103.163494    212.458225
C  206.594056    -104.081006    211.511184
C  207.941910    -104.566373    211.988446
O  208.747632    -103.445643    212.306399
C  209.983828    -103.854865    212.868808
C  209.984394    -103.509854    214.339430
O  208.918179    -102.612898    214.610448
C  208.766259    -102.418429    216.009517
C  207.507916    -103.112887    216.466220
O  206.918098    -103.765461    215.351739
C  205.815682    -104.564992    215.751835
C  206.251004    -106.015219    215.824812
O  207.632641    -106.102630    215.520586
C  207.989127    -107.434715    215.193393
C  209.492252    -107.570196    215.285457
O  209.971135    -106.674581    216.278042
C  211.387393    -106.574926    216.234845
C  211.826456    -105.511504    217.217275
O  212.426850    -104.441358    216.501731
C  213.841168    -104.490233    216.603180
C  214.428893    -103.416596    215.716585
O  215.136355    -102.493559    216.525881
C  216.242703    -101.951476    215.823099
C  216.753218    -100.737053    216.572693
O  215.838086    -100.417132    217.612395
C  216.320398    -100.843386    218.878530
C  215.159462    -100.882035    219.844960
O  214.418537    -102.068134    219.614591
C  213.510149    -102.312507    220.676368
C  212.235376    -102.887262    220.096532
O  212.122589    -102.484294    218.741845
C  211.358074    -101.296036    218.622952
C  211.635842    -100.686880    217.271945
O  212.734915    -99.805411    217.393460
C  213.118973    -99.309794    216.126172
C  213.895191    -98.034215    216.328844
O  213.957334    -97.764739    217.719335
C  214.790257    -96.650156    217.988157
C  214.653669    -96.299731    219.450845
O  213.934402    -97.336476    220.097059
C  213.362482    -96.871329    221.305912
C  212.958550    -98.060963    222.143301
O  211.653843    -98.471801    221.764027
C  211.062538    -99.250783    222.791265
C  209.805639    -99.905162    222.258475
O  209.524393    -99.385655    220.970076
C  208.132309    -99.447085    220.696461
C  207.899383    -99.093719    219.241597
O  209.143000    -98.792865    218.634722
C  209.387552    -97.396025    218.629086
C  210.840160    -97.174407    218.306333
O  211.229232    -95.893027    218.765431
C  211.234588    -94.946269    217.711830
C  211.709120    -93.636768    218.270421
O  211.490137    -93.636328    219.669224
C  211.623994    -92.328773    220.194635
C  211.805630    -92.426700    221.686254
O  212.270487    -93.731015    221.996883
C  212.158773    -93.996814    223.386096
C  210.864427    -94.739741    223.645210
O  210.240843    -95.027545    222.403950
C  209.061767    -95.791908    222.594339
C  207.949126    -95.176859    221.776573
O  208.500640    -94.191375    220.918562
C  207.684506    -94.015693    219.773400
C  207.873957    -92.612914    219.246542
O  206.642492    -92.145986    218.718702
C  206.021174    -91.231441    219.608643
C  204.648343    -90.900189    219.073390
O  204.292783    -91.874097    218.107039
C  202.883332    -91.978816    217.993501
C  202.553468    -92.846694    216.795928
O  203.742644    -93.462290    216.328958
C  203.918742    -94.750082    216.904499
C  205.365973    -95.131955    216.744779
O  206.036203    -94.053989    216.117085
C  207.289579    -94.464666    215.608493
C  208.073741    -93.236635    215.202099
O  207.461625    -92.089225    215.770502
C  206.771807    -91.336950    214.784661
C  205.944951    -90.282878    215.474517
O  206.189217    -89.037659    214.849092
C  205.757946    -87.969438    215.673341
C  205.501159    -86.774711    214.791843
O  205.674797    -87.173258    213.443875
C  205.634645    -86.054849    212.576744
C  205.392821    -86.555761    211.173783
O  205.911584    -87.870896    211.066729
C  205.327391    -88.549505    209.969697
C  206.280044    -89.623063    209.494971
O  207.033022    -90.097068    210.599158
C  208.288301    -90.589356    210.163459
C  208.899774    -91.426124    211.265210
O  209.702245    -90.600035    212.090361
C  210.681020    -91.377105    212.759350
C  211.203199    -90.595208    213.937100
O  210.140052    -90.367075    214.842520
C  210.635276    -89.851880    216.063023
C  209.475643    -89.447249    216.928439
O  209.806826    -88.240970    217.591240
C  208.849451    -87.925045    218.588069
C  209.451909    -88.206524    219.947482
O  210.794109    -87.739063    219.959567
C  211.708133    -88.815786    220.091218
C  213.111227    -88.268214    220.045477
O  214.027411    -89.349428    219.965096
C  214.812922    -89.448091    221.144543
C  215.724461    -90.643537    221.006141
O  215.899277    -90.912300    219.623302
C  215.915889    -92.308193    219.362947
C  216.080990    -92.512190    217.871238
O  215.813401    -91.286468    217.202085
C  214.439450    -91.190748    216.852602
C  214.127172    -89.772180    216.466884
O  215.274016    -88.974408    216.661755
C  215.065311    -87.688304    216.112753
C  216.196219    -86.797907    216.537128
O  215.731467    -85.906437    217.538000
C  216.202661    -86.286299    218.823151
C  215.662228    -85.307116    219.828646
O  214.761297    -84.441142    219.153726
C  213.535075    -84.291500    219.851480
C  212.538525    -83.696309    218.895459
O  212.812239    -84.220276    217.602852
C  211.716902    -84.028684    216.726108
C  210.795006    -85.221190    216.820231
O  210.834399    -85.929606    215.592333
C  209.542107    -86.024785    215.016310
C  209.615853    -86.963802    213.843394
O  209.325156    -86.245600    212.659472
C  209.359349    -87.109862    211.539595
C  209.022445    -86.316028    210.301181
O  210.202011    -86.128500    209.541212
C  209.887520    -85.945149    208.172994
C  211.118899    -85.443920    207.456609
O  212.218370    -86.269585    207.805007
C  213.251077    -86.158319    206.841517
C  214.487155    -86.851788    207.366129
O  214.755837    -86.387985    208.676858
C  216.104140    -86.642998    209.019287
C  216.257043    -86.578039    210.518419
O  215.060344    -86.078289    211.091842
C  214.966809    -86.468069    212.451450
C  213.920987    -85.625362    213.142464
O  213.656724    -84.482618    212.347912
C  212.271624    -84.369601    212.068801
C  212.041190    -83.106390    211.267952
O  213.290398    -82.622089    210.796110
C  213.550843    -83.084892    209.479747
C  215.011200    -82.854672    209.168055
O  215.406177    -81.615359    209.731604
C  215.597408    -80.630979    208.729584
C  215.748308    -79.285348    209.403875
O  215.064168    -79.311858    210.648280
C  213.772712    -78.735756    210.536608
C  212.995709    -79.042397    211.798247
O  213.671995    -80.057771    212.518637
C  213.296250    -80.036827    213.885097
C  213.687548    -81.352416    214.521605
O  214.906835    -81.184725    215.225775
C  215.070713    -82.215867    216.183749
C  216.508034    -82.235391    216.645685
O  217.118482    -83.441389    216.186298
C  218.182103    -83.875483    217.034292
C  219.353031    -82.934170    216.918919
O  219.317804    -82.039619    218.013817
C  220.307780    -81.038853    217.890209
C  219.644472    -79.749059    217.489939
O  219.395707    -79.776760    216.101345
C  219.482211    -78.479628    215.556883
C  218.822819    -78.493822    214.207233
O  218.327595    -79.793903    213.956675
C  217.253270    -79.739904    213.039088
C  217.069804    -81.108327    212.432887
O  217.665985    -82.067570    213.278489
C  217.280515    -83.374327    212.892075
C  218.438723    -84.293926    213.154384
O  219.559156    -83.505473    213.487553
C  220.679281    -84.314744    213.784613
C  221.823666    -83.397018    214.090175
O  221.288427    -82.104029    214.317643
C  222.273935    -81.101360    214.178022
C  222.159274    -80.490117    212.800538
O  220.848086    -80.705080    212.305113
C  220.652061    -80.012930    211.080379
C  220.304475    -81.008239    210.001751
O  220.214483    -82.302207    210.577729
C  219.977289    -83.281858    209.577569
C  221.271598    -84.002886    209.267813
O  222.154510    -83.885957    210.371593
C  223.099437    -84.945641    210.360626
C  224.393221    -84.467479    210.980049
O  224.454660    -83.054946    210.911418
C  225.460943    -82.565010    211.784298
C  225.808908    -81.152441    211.381785
O  225.088758    -80.823919    210.206324
C  224.916340    -79.422550    210.106912
C  224.490471    -79.082568    208.695306
O  223.136965    -78.661751    208.708926
C  222.613132    -78.614331    207.393162
C  221.588458    -77.504139    207.313666
O  221.245469    -77.096558    208.628925
C  220.125218    -76.223218    208.612298
C  218.879268    -77.019796    208.936687
O  218.319215    -76.533358    210.147078
C  217.281559    -75.599245    209.887604
C  217.020889    -74.805480    211.145690
O  217.158750    -75.666846    212.266653
C  217.266983    -74.921567    213.471500
C  218.727337    -74.814681    213.851215
O  219.502133    -75.511374    212.889788
C  220.860906    -75.564704    213.281594
C  221.649893    -76.244381    212.192980
O  222.276617    -75.258492    211.392242
C  223.497079    -75.751200    210.870222
C  223.850020    -74.973750    209.628830
O  222.766227    -74.123544    209.303812
C  223.003785    -73.452797    208.078781
C  221.812985    -72.579776    207.780075
O  221.316433    -72.065438    209.001258
C  219.913320    -71.891757    208.937927
C  219.490572    -70.991527    210.073896
O  220.573313    -70.856239    210.981968
C  220.433443    -71.749607    212.073995
C  221.689019    -71.694159    212.910198
O  222.709709    -72.440939    212.263473
C  223.790493    -72.713014    213.149889
C  225.090238    -72.401957    212.441811
O  224.806268    -71.654734    211.268068
C  224.849491    -70.256260    211.521816
C  223.938713    -69.563766    210.536586
O  222.990116    -68.787240    211.250722
C  222.409412    -67.816796    210.399476
C  221.167769    -67.245439    211.053355
O  220.788565    -68.055680    212.154974
C  219.411040    -67.868310    212.439171
C  219.114197    -68.309629    213.854946
O  220.326015    -68.612835    214.520720
C  220.119202    -68.650302    215.924724
C  221.014546    -69.705560    216.517044
O  222.315867    -69.168245    216.683514
C  223.281398    -70.023325    216.107258
C  224.660035    -69.571480    216.503878
O  225.526334    -69.776046    215.404291
C  226.867091    -69.911181    215.839018
C  227.780371    -69.518136    214.697934
O  227.026156    -68.803531    213.729387
C  227.051263    -67.404803    213.982806
C  225.814496    -66.786681    213.375967
O  224.849953    -66.601315    214.397778
C  223.544081    -66.588363    213.850776
C  222.634165    -65.821997    214.780104
O  222.909899    -66.210662    216.114605
C  222.388313    -65.260021    217.027085
C  222.295916    -65.897410    218.394815
O  223.451638    -65.552524    219.141208
C  223.875176    -66.645696    219.936996
C  224.844453    -66.143609    220.984850
O  224.238692    -66.244915    222.265130
C  224.617692    -67.450623    222.911299
C  223.688433    -67.686696    224.077337
O  222.634132    -68.534030    223.655202
C  221.485615    -68.341255    224.463468
C  220.521687    -69.481950    224.218233
O  220.860640    -70.116309    222.993419
C  220.085377    -69.607995    221.914903
C  220.836265    -69.867816    220.633792
O  222.172417    -70.193753    220.966099
C  222.952755    -70.383102    219.802718
C  224.353977    -70.720127    220.233555
O  224.340217    -70.974908    221.627772
C  225.648771    -71.215305    222.113846
C  225.585522    -71.302431    223.619527
O  224.295473    -71.755944    223.992678
C  224.105442    -71.636618    225.392011
C  223.139181    -72.707127    225.840059
O  221.980602    -72.639803    225.028469
C  221.076566    -73.684870    225.346060
C  219.779172    -73.419632    224.623995
O  219.457385    -74.545694    223.820326
C  218.637782    -74.171107    222.721382
C  219.517426    -73.957918    221.509472
O  220.789839    -74.537012    221.757016
C  221.826925    -73.687325    221.298400
C  223.144407    -74.415804    221.420812
O  223.541601    -74.409124    222.783827
C  224.787362    -75.068916    222.959946
C  224.581257    -76.305498    223.808200
O  223.949384    -77.305697    223.025483
C  222.617332    -77.526904    223.454175
C  221.917448    -78.381799    222.432182
O  220.808520    -77.659919    221.932804
C  220.333622    -78.240800    220.734965
C  218.936915    -77.733995    220.481709
O  218.931245    -76.978210    219.286439
C  217.601930    -76.697697    218.882882
C  217.622376    -75.471363    218.004848
O  218.967402    -75.059141    217.838496
C  219.031974    -73.676068    217.542322
C  220.377008    -73.381316    216.932705
O  221.100285    -74.596886    216.814053
C  222.428259    -74.353873    216.378232
C  223.339704    -74.299971    217.578736
O  224.622104    -74.775339    217.201015
C  225.627403    -73.849114    217.574019
C  226.981862    -74.421382    217.227416
O  226.820768    -75.460157    216.271750
C  227.201259    -75.023475    214.974435
C  227.022756    -76.170709    214.005093
O  226.271806    -77.194809    214.638031
C  224.940434    -77.219184    214.154749
C  224.118493    -78.109828    215.050428
O  224.361271    -77.755833    216.396571
C  223.271821    -78.141234    217.216253
C  223.736569    -78.134498    218.644836
O  225.148617    -78.055768    218.654834
C  225.589650    -77.330735    219.782377
C  227.036604    -77.670274    220.043369
O  227.124442    -79.036035    220.419098
C  227.285049    -79.171859    221.823057
C  227.042806    -80.614673    222.194624
O  226.060928    -81.158610    221.323519
C  224.797272    -81.245264    221.966596
C  223.803209    -81.825357    220.991429
O  224.466778    -82.092148    219.770154
C  223.526401    -82.341344    218.743262
C  224.235754    -82.964593    217.572705
O  225.595101    -82.561686    217.588916
C  225.811965    -81.482257    216.694630
C  227.183470    -80.907458    216.954366
O  227.327535    -79.706605    216.219824
H  221.624620    -81.923890    223.538755
H  222.683017    -83.251136    225.455601
H  222.935328    -83.744697    223.577742
H  221.998288    -85.728391    224.014785
H  220.360029    -84.813205    224.578208
H  219.842683    -85.841529    226.686971
H  220.341753    -83.946236    226.742900
H  220.654550    -86.218649    228.747844
H  220.730181    -84.271113    228.951588
H  223.048704    -83.789085    229.803717
H  222.542730    -83.216540    227.997956
H  224.559120    -83.974752    227.056228
H  225.018818    -85.030599    228.642464
H  226.494387    -82.614731    227.121417
H  227.099084    -83.833683    228.533177
H  227.706997    -81.011539    228.131994
H  228.014246    -82.144424    229.704294
H  227.901927    -79.782552    230.366231
H  227.022134    -80.976603    231.651579
H  226.481170    -78.102490    230.836973
H  225.823422    -79.180522    232.335697
H  223.391725    -78.997090    232.117280
H  224.192207    -80.773276    231.866577
H  221.698707    -79.492994    230.708532
H  222.341408    -81.346892    230.737336
H  221.224327    -79.241703    228.361511
H  221.255131    -81.191623    228.567087
H  222.491687    -79.273933    226.462934
H  221.606643    -81.014312    226.274004
H  223.543651    -80.525232    224.842468
H  224.804269    -81.907440    225.423653
H  225.185458    -79.008617    225.012162
H  226.420864    -80.383761    225.672382
H  226.900919    -78.118282    226.264655
H  226.933499    -78.453809    228.194656
H  225.863093    -76.172153    226.679631
H  225.739056    -76.602966    228.591318
H  222.491421    -75.952644    226.945485
H  224.066783    -75.115316    227.756667
H  222.944892    -75.310782    229.713007
H  223.275431    -77.235625    229.542036
H  220.564747    -75.162608    230.328072
H  221.340730    -76.823762    231.027678
H  218.543765    -76.206424    230.418984
H  219.400258    -77.931359    230.780643
H  218.814356    -75.341363    228.324879
H  217.293449    -76.568079    228.140230
H  219.933179    -76.340286    226.436013
H  218.084936    -75.932403    225.913725
H  220.293696    -78.897098    225.418037
H  219.591815    -77.347633    224.446857
H  218.774260    -80.330285    224.485607
H  218.740254    -78.969640    223.083727
H  216.441019    -78.425622    222.545479
H  217.345107    -77.065456    223.624719
H  214.456770    -77.795281    223.403843
H  215.383585    -76.369889    224.383395
H  213.024426    -78.757544    225.279320
H  213.423136    -76.868848    225.623223
H  212.916972    -79.133016    227.487324
H  213.335624    -77.247747    227.833872
H  214.039644    -79.016139    229.617365
H  215.210696    -77.446694    229.489903
H  215.776907    -80.245963    230.302199
H  216.959793    -78.692144    230.137682
H  217.610284    -81.552000    229.602063
H  218.766528    -80.020544    229.205359
H  218.961071    -82.428511    227.937682
H  219.144854    -80.709489    227.015232
H  217.712625    -83.819375    226.487107
H  218.698532    -82.571009    225.345600
H  216.804482    -83.959502    224.242275
H  216.653188    -82.008989    224.131036
H  214.227718    -82.434272    223.777467
H  214.818085    -81.038872    225.027425
H  212.348178    -82.805857    224.969071
H  212.769418    -81.177283    225.970820
H  212.721458    -81.834666    228.442070
H  214.436206    -81.402591    227.592387
H  213.630997    -83.607057    229.636400
H  215.224963    -82.478156    229.469360
H  215.682596    -85.045437    230.013976
H  217.010959    -83.996410    229.020870
H  216.198847    -86.919760    228.855513
H  217.734929    -85.933628    228.137819
H  216.998097    -87.802024    226.521859
H  217.707287    -86.133433    225.774647
H  215.675383    -88.089650    224.711422
H  216.612242    -86.571619    223.892610
H  214.462896    -86.918545    222.922968
H  214.703150    -84.984630    223.132041
H  212.489201    -85.588709    224.801873
H  212.246100    -86.770491    223.253642
H  210.394921    -85.183019    223.489029
H  210.874309    -85.430541    221.602334
H  209.751539    -83.065163    223.112856
H  209.997209    -83.394477    221.194887
H  210.943257    -81.033289    223.619965
H  210.246246    -80.934494    221.788022
H  212.789226    -79.851014    223.094262
H  211.842963    -79.363282    221.447103
H  215.010203    -80.509089    222.413642
H  214.327343    -79.128308    221.199895
H  216.066469    -79.931490    219.911602
H  214.679327    -81.230591    219.442464
H  217.445835    -80.566410    221.836947