16
2067.068657 ** Energy = -28.897215 Eh ** Charge = 0 ** Spin = 0 ** Curcuma 0.1 (0.0.69-3-g570a2ae)
C  -0.197798    3.539552    1.318732
C  -1.429764    3.259220    0.552722
O  0.244521    2.615116    2.006221
O  0.240378    4.813292    1.357261
H  -1.103590    2.928621    -0.466901
H  -1.750220    2.282953    0.971603
H  -2.246047    3.999023    0.460747
H  1.157457    5.157564    1.474711
C  3.266739    3.666608    2.852797
C  4.396218    3.835656    3.883065
O  2.865293    4.372366    1.965554
O  2.534279    2.628741    3.176328
H  4.602084    4.813706    4.060116
H  5.185874    3.331409    3.407559
H  3.936178    3.202210    4.632619
H  1.679520    2.508938    2.501642
