24
 ** Energy = -42.153837 Eh ** Charge = 0 ** Spin = 0 ** Curcuma 0.1 (0.0.233-75-g1234bfa)
C  5.309865    -0.227989    0.000000
N  4.805387    -1.570852    0.000000
C  5.495451    -2.723965    -0.000000
N  4.732298    -3.796997    0.000000
C  3.468748    -3.315627    -0.000000
C  3.475550    -1.927321    0.000000
C  2.277020    -1.143065    0.000000
N  1.145167    -1.963559    0.000000
C  -0.155338    -1.313371    0.000000
C  1.102746    -3.353302    0.000000
N  2.308442    -4.022674    0.000000
C  2.307554    -5.470124    -0.000000
O  0.049702    -3.951635    0.000000
O  2.198880    0.071270    -0.000000
H  6.398541    -0.251049    0.000000
H  4.950417    0.305142    -0.882206
H  4.950417    0.305142    0.882206
H  6.567370    -2.764151    -0.000000
H  0.014566    -0.238643    0.000000
H  -0.717580    -1.611119    -0.885391
H  -0.717580    -1.611119    0.885391
H  3.343677    -5.798969    0.000000
H  1.787615    -5.839993    0.884987
H  1.787615    -5.839993    -0.884987
