42
0 0.000000 ** Energy =   0.000000 Eh ** Charge = 0 ** Spin = 0 ** Curcuma 0.1 (0.0.224-160-g1ba8712)
C  3.789717    -0.244879    0.880244
C  2.674395    -0.930827    1.297574
C  1.421754    -0.328371    1.271006
C  1.225437    0.978726    0.726624
C  2.385233    1.733317    0.478469
C  3.647511    1.095491    0.491451
C  2.280085    3.088683    0.235150
C  1.049471    3.718541    0.278032
C  -0.116060    2.970462    0.389041
C  -0.079504    1.549346    0.447403
C  -1.366430    0.817928    0.229715
C  -2.536731    1.549308    0.438949
C  -2.541049    2.925654    0.548416
C  -1.336066    3.628528    0.449584
C  -3.783310    0.897325    0.548718
C  -3.856860    -0.479970    0.449466
C  -2.722697    -1.224083    0.100283
C  -1.494144    -0.587045    -0.168569
C  -0.517148    -1.409171    -0.842727
C  0.559537    -0.873933    -1.609367
C  1.610576    -1.656473    -2.058038
C  1.598533    -3.031942    -1.823327
C  0.491519    -3.607168    -1.214001
C  -0.601538    -2.810675    -0.772845
C  -1.751838    -3.436321    -0.297823
C  -2.848543    -2.628814    0.045364
H  4.790904    -0.698549    0.813851
H  2.779350    -1.971995    1.591969
H  0.545761    -0.881540    1.580051
H  4.531495    1.648843    0.224533
H  3.215706    3.706237    0.106059
H  0.954943    4.819337    0.183609
H  -3.405339    3.519311    0.687847
H  -1.434501    4.743354    0.559390
H  -4.756555    1.426015    0.653371
H  -4.827842    -0.970035    0.623570
H  0.670981    0.174055    -1.850342
H  2.462638    -1.275881    -2.578727
H  2.486918    -3.660752    -2.091971
H  0.464527    -4.668021    -1.088329
H  -1.901864    -4.481504    -0.238971
H  -3.802496    -3.159385    0.291188
42
1 1.237427 ** Energy =   0.000000 Eh ** Charge = 0 ** Spin = 0 ** Curcuma 0.1 (0.0.224-160-g1ba8712)
C  3.752181    0.618662    2.228636
C  3.004254    -0.394423    1.608932
C  1.719296    -0.153708    1.143791
C  1.334495    1.144516    0.742732
C  2.307652    2.144658    1.080481
C  3.274014    1.900849    2.029417
C  2.166125    3.409690    0.457453
C  1.241853    3.649303    -0.543192
C  0.006270    2.860943    -0.643703
C  0.142173    1.578465    -0.076245
C  -1.110491    0.758560    -0.151677
C  -2.353976    1.405382    0.173798
C  -2.467176    2.805885    -0.068659
C  -1.374170    3.447864    -0.602690
C  -3.350685    0.750511    0.943624
C  -3.139131    -0.492059    1.409389
C  -1.996386    -1.258552    0.945659
C  -1.030188    -0.703148    0.031958
C  -0.495284    -1.610162    -0.892309
C  0.495374    -1.365930    -1.868187
C  0.702059    -2.229422    -2.934513
C  0.011010    -3.409844    -3.088192
C  -0.794398    -3.828815    -2.024796
C  -0.820655    -3.069726    -0.830674
C  -1.643576    -3.601325    0.266267
C  -2.262093    -2.677168    1.033498
H  4.678924    0.407799    2.752754
H  3.376536    -1.417009    1.692510
H  1.081133    -0.939776    0.754107
H  3.534725    2.553016    2.831851
H  2.965017    4.052899    0.555399
H  1.391390    4.552703    -1.164233
H  -3.339313    3.301206    0.345536
H  -1.393693    4.579038    -0.789893
H  -4.278844    1.302810    1.097330
H  -3.951307    -0.968057    1.958916
H  1.036085    -0.441319    -1.729133
H  1.548205    -1.986373    -3.537214
H  0.353362    -4.099239    -3.874237
H  -1.312187    -4.715084    -2.110395
H  -1.678023    -4.634999    0.559175
H  -2.866287    -3.008406    1.888206
42
2 1.661102 ** Energy =   0.000000 Eh ** Charge = 0 ** Spin = 0 ** Curcuma 0.1 (0.0.224-160-g1ba8712)
C  3.048331    0.967895    2.875868
C  2.083491    -0.002958    2.770582
C  1.407401    -0.031385    1.615843
C  1.616468    0.827468    0.543008
C  2.694600    1.713994    0.628615
C  3.386726    1.819644    1.871044
C  2.768180    2.866954    -0.250792
C  1.540115    3.323007    -0.658944
C  0.252288    2.708674    -0.510275
C  0.324046    1.466522    0.112076
C  -0.936672    0.707281    0.262927
C  -2.239583    1.272744    0.226781
C  -2.272737    2.681227    -0.260975
C  -1.096058    3.228673    -0.736236
C  -3.375899    0.459975    0.646065
C  -3.254714    -0.837535    1.183059
C  -1.937735    -1.426246    1.123216
C  -0.914291    -0.733558    0.337905
C  -0.584930    -1.348978    -1.011062
C  -0.851628    -0.837127    -2.258387
C  -0.697726    -1.643239    -3.348144
C  -0.281225    -2.949637    -3.243853
C  -0.010193    -3.565361    -2.029139
C  -0.465668    -2.794093    -0.902241
C  -0.699182    -3.400164    0.437650
C  -1.786919    -2.840260    1.100914
H  3.544002    1.160140    3.830448
H  1.732705    -0.523800    3.641683
H  0.613523    -0.734980    1.458718
H  4.232044    2.489582    2.018917
H  3.731907    3.421260    -0.443778
H  1.537635    4.287081    -1.085844
H  -3.230851    3.146978    -0.388812
H  -1.079969    4.071839    -1.325838
H  -4.360269    0.834479    0.478611
H  -4.091863    -1.434648    1.503431
H  -1.761740    -0.222163    -2.334103
H  -1.313262    -1.439326    -4.244318
H  -0.488738    -3.560815    -4.097642
H  0.217372    -4.670068    -1.925572
H  -0.263929    -4.352014    0.732794
H  -2.614863    -3.368470    1.568399
42
3 1.205700 ** Energy =   0.000000 Eh ** Charge = 0 ** Spin = 0 ** Curcuma 0.1 (0.0.224-160-g1ba8712)
C  4.101040    0.917992    0.660874
C  3.430957    0.158563    1.634155
C  2.061624    0.149926    1.494039
C  1.363727    1.126627    0.632803
C  2.179233    2.039518    -0.088367
C  3.593485    1.934742    -0.064288
C  1.665084    3.078288    -0.923318
C  0.378169    3.438370    -0.777336
C  -0.435706    2.783136    0.216642
C  -0.111386    1.365809    0.536927
C  -1.294315    0.452790    0.558534
C  -2.412281    1.183718    1.043301
C  -2.206429    2.490754    1.649922
C  -1.228071    3.399533    1.241651
C  -3.708269    0.914360    0.574199
C  -3.906451    -0.282428    -0.063177
C  -2.858890    -1.154030    -0.427411
C  -1.521046    -0.786939    -0.141353
C  -0.399672    -1.638782    -0.556914
C  1.013140    -1.382902    -0.687092
C  1.937018    -2.437841    -0.640340
C  1.439744    -3.745522    -0.802402
C  0.113243    -3.957539    -0.967397
C  -0.830073    -2.938392    -0.833841
C  -2.188438    -3.282789    -1.239650
C  -3.060803    -2.275846    -1.339417
H  5.158328    0.805875    0.594688
H  3.905487    -0.431767    2.419747
H  1.454593    -0.628412    1.942357
H  4.159314    2.573385    -0.721573
H  2.361450    3.599372    -1.499229
H  0.032283    4.260259    -1.418180
H  -2.999174    2.895460    2.256454
H  -1.229083    4.476069    1.468668
H  -4.507745    1.642497    0.659446
H  -4.806446    -0.456875    -0.641243
H  1.340555    -0.438111    -1.069460
H  3.000448    -2.249697    -0.511338
H  2.147687    -4.461621    -1.130733
H  -0.220159    -4.966288    -1.052909
H  -2.382114    -4.203692    -1.806973
H  -3.839807    -2.329462    -2.071689
42
4 1.432067 ** Energy =   0.000000 Eh ** Charge = 0 ** Spin = 0 ** Curcuma 0.1 (0.0.224-160-g1ba8712)
C  3.763631    0.955626    2.097515
C  2.731029    0.200842    2.616448
C  1.528448    0.353667    1.996256
C  1.424543    1.219660    0.859141
C  2.519420    1.986130    0.430794
C  3.764758    1.662550    0.910150
C  2.249227    2.820584    -0.740416
C  0.980938    3.094155    -1.189100
C  -0.092533    2.400424    -0.554586
C  0.114762    1.341891    0.267783
C  -1.084578    0.515819    0.635466
C  -2.265324    1.311414    0.948279
C  -2.419100    2.574728    0.129250
C  -1.366574    3.020841    -0.690491
C  -3.227174    0.701492    1.670169
C  -3.230756    -0.701957    1.786523
C  -2.538693    -1.439720    0.673305
C  -1.243308    -0.889063    0.346846
C  -0.483227    -1.706858    -0.619844
C  0.914091    -1.624555    -0.739744
C  1.528289    -2.385404    -1.721379
C  0.898620    -2.707054    -2.947873
C  -0.469527    -3.033964    -2.711676
C  -1.119885    -2.620035    -1.498022
C  -2.498379    -2.920549    -1.227789
C  -3.092860    -2.473511    -0.095715
H  4.628746    0.999197    2.746027
H  2.857140    -0.487880    3.435967
H  0.755456    -0.377562    2.115923
H  4.680101    2.080189    0.481783
H  3.091281    3.098699    -1.370885
H  0.915397    3.941060    -1.886987
H  -3.370143    3.014928    0.029477
H  -1.650636    3.764534    -1.371694
H  -3.971196    1.306464    2.156165
H  -4.010626    -1.306852    2.311364
H  1.529725    -1.199227    0.018447
H  2.615800    -2.476953    -1.812927
H  1.315325    -3.298053    -3.746211
H  -0.980411    -3.612469    -3.442286
H  -2.905746    -3.709101    -1.872707
H  -3.964762    -2.913556    0.335047
42
5 1.385379 ** Energy =   0.000000 Eh ** Charge = 0 ** Spin = 0 ** Curcuma 0.1 (0.0.224-160-g1ba8712)
C  4.120690    0.352958    0.505894
C  3.188686    -0.351295    -0.228935
C  1.909802    0.118607    -0.466805
C  1.356508    1.152396    0.255104
C  2.238990    1.962866    0.950784
C  3.587177    1.581654    1.042443
C  1.839551    3.276550    1.299596
C  0.663348    3.911803    0.839337
C  -0.260563    3.039043    0.121628
C  -0.046724    1.642634    0.006839
C  -1.220775    0.773333    -0.162947
C  -2.473973    1.459733    -0.195396
C  -2.411136    2.815920    -0.657305
C  -1.418117    3.679353    -0.456444
C  -3.696690    0.701609    0.067563
C  -3.520293    -0.435965    0.952120
C  -2.295150    -1.097166    0.929104
C  -1.203736    -0.641882    0.117949
C  -0.589802    -1.783617    -0.596183
C  -0.194891    -1.629403    -1.975325
C  0.443622    -2.693714    -2.587202
C  0.652902    -3.876429    -1.835745
C  0.189398    -4.042431    -0.564174
C  -0.478924    -3.019460    0.085850
C  -0.993047    -3.048154    1.401470
C  -1.999909    -2.137606    1.734648
H  5.170926    0.108836    0.379505
H  3.661647    -1.016636    -0.894365
H  1.279806    -0.417730    -1.204319
H  4.145320    2.229896    1.631891
H  2.323736    3.687706    2.071945
H  0.377079    4.897453    1.255142
H  -3.301335    3.203165    -1.195966
H  -1.621205    4.712928    -0.805012
H  -4.624970    1.082703    -0.026117
H  -4.425469    -0.776130    1.266913
H  -0.850439    -0.875836    -2.481011
H  0.214396    -2.738673    -3.705757
H  1.044364    -4.757875    -2.349042
H  0.374591    -4.918761    0.039997
H  -0.650842    -3.914456    2.105404
H  -2.786971    -2.328832    2.602420
42
6 1.346126 ** Energy =   0.000000 Eh ** Charge = 0 ** Spin = 0 ** Curcuma 0.1 (0.0.224-160-g1ba8712)
C  4.085253    0.679244    -1.015907
C  3.339575    -0.392056    -0.484296
C  2.123525    -0.101000    0.083281
C  1.469913    1.157202    0.106796
C  2.350937    2.217135    -0.293533
C  3.577119    1.938849    -0.874572
C  1.937868    3.564983    0.223310
C  0.802244    3.839813    0.923006
C  -0.197959    2.797651    0.963640
C  0.077901    1.515468    0.481579
C  -1.162799    0.737952    0.063439
C  -2.391483    1.585269    0.109721
C  -2.524471    2.671900    1.095984
C  -1.404499    3.124545    1.639928
C  -3.628796    1.106878    -0.376088
C  -3.877102    -0.175162    -0.607786
C  -2.853185    -1.072290    -0.235295
C  -1.477686    -0.687394    -0.369515
C  -0.437726    -1.765163    -0.416276
C  0.609688    -1.846571    -1.323983
C  1.328500    -3.017861    -1.354333
C  1.222591    -4.080552    -0.443484
C  0.244262    -3.946414    0.549297
C  -0.758086    -2.915569    0.351903
C  -2.038679    -2.964153    1.025521
C  -3.086758    -2.185175    0.671075
H  4.981832    0.426720    -1.572651
H  3.464909    -1.401668    -0.889854
H  1.586442    -0.880148    0.432790
H  4.075440    2.859591    -1.250783
H  2.601673    4.402331    0.046675
H  0.680085    4.739290    1.499613
H  -3.569035    2.774344    1.501370
H  -1.298977    3.745612    2.512604
H  -4.376524    1.894102    -0.446302
H  -4.876274    -0.600867    -0.651403
H  0.598513    -1.150435    -2.128173
H  1.822801    -3.263870    -2.241207
H  1.769576    -5.003115    -0.605355
H  -0.142687    -4.796278    1.107583
H  -2.205640    -3.879573    1.706931
H  -4.104666    -2.596229    0.747683
42
7 1.548628 ** Energy =   0.000000 Eh ** Charge = 0 ** Spin = 0 ** Curcuma 0.1 (0.0.224-160-g1ba8712)
C  3.787772    0.078064    -0.634583
C  3.079326    -0.343835    0.518670
C  1.843536    0.230870    0.864831
C  1.239651    1.295150    0.121875
C  2.080278    1.796523    -0.894966
C  3.222378    1.120938    -1.333538
C  1.698355    3.180414    -1.262337
C  0.749638    3.876868    -0.532289
C  -0.280898    3.120435    0.199423
C  -0.124506    1.712476    0.366390
C  -1.236338    0.811436    0.838245
C  -2.360395    1.639474    1.292553
C  -2.374854    3.064463    1.116546
C  -1.464408    3.811230    0.442302
C  -3.656136    0.944185    1.418961
C  -3.715213    -0.368268    1.000114
C  -2.665342    -1.178576    0.367468
C  -1.320450    -0.698635    0.554827
C  -0.261086    -1.732032    0.216682
C  0.837297    -2.419932    0.932992
C  1.636230    -3.420925    0.406556
C  1.604065    -3.713331    -0.979369
C  0.513703    -3.147083    -1.631013
C  -0.590382    -2.562540    -0.924527
C  -1.951869    -3.010554    -1.145607
C  -3.000206    -2.343944    -0.550445
H  4.649480    -0.432378    -0.995434
H  3.483159    -1.122863    1.177809
H  1.220196    -0.164638    1.720815
H  3.710817    1.412169    -2.238050
H  2.057028    3.587661    -2.220904
H  0.294952    4.734204    -1.072028
H  -3.296507    3.611669    1.305831
H  -1.529180    4.862276    0.372960
H  -4.517701    1.567779    1.590168
H  -4.711328    -0.676527    0.756016
H  0.764800    -2.247739    1.969468
H  2.256566    -4.057031    1.004537
H  2.528083    -3.796294    -1.560892
H  0.586784    -2.886636    -2.676007
H  -2.041737    -3.831963    -1.779059
H  -3.971291    -2.757696    -0.878791
42
8 1.752664 ** Energy =   0.000000 Eh ** Charge = 0 ** Spin = 0 ** Curcuma 0.1 (0.0.224-160-g1ba8712)
C  3.547844    0.655027    -1.536695
C  3.021731    -0.079495    -0.485192
C  1.970997    0.343025    0.244803
C  1.259897    1.444049    -0.323966
C  2.117553    2.461192    -0.854523
C  3.131145    1.978119    -1.725666
C  1.858563    3.821766    -0.401056
C  0.836554    4.044111    0.427470
C  -0.102958    3.069637    0.788093
C  -0.020039    1.702259    0.262984
C  -1.136286    0.670587    0.334343
C  -2.358053    1.402940    0.679242
C  -2.221262    2.539348    1.599733
C  -1.152584    3.448260    1.675379
C  -3.622960    1.010475    0.295979
C  -3.745837    -0.240041    -0.069478
C  -2.655847    -1.113644    -0.297121
C  -1.307524    -0.757813    -0.017242
C  -0.457025    -1.946766    0.171607
C  0.734217    -2.008101    0.918052
C  1.639734    -3.106490    0.975717
C  1.478630    -4.197110    0.062312
C  0.299165    -4.147237    -0.649767
C  -0.742447    -3.187151    -0.459909
C  -2.151522    -3.539494    -0.653040
C  -3.040720    -2.524626    -0.591040
H  4.506817    0.326787    -1.899300
H  3.494988    -0.964498    -0.130432
H  1.670388    -0.224885    1.040220
H  3.537781    2.543212    -2.534506
H  2.688790    4.521001    -0.550507
H  0.865074    4.995044    1.008421
H  -3.079580    2.827312    2.210428
H  -0.988735    4.132011    2.514617
H  -4.444033    1.692977    0.170585
H  -4.618321    -0.483059    -0.654353
H  0.657829    -1.395755    1.820786
H  2.493923    -3.028352    1.651501
H  2.267978    -4.909627    -0.172804
H  0.102698    -4.889374    -1.404771
H  -2.300545    -4.558178    -1.053458
H  -4.069854    -2.782093    -0.788426
42
9 2.216181 ** Energy =   0.000000 Eh ** Charge = 0 ** Spin = 0 ** Curcuma 0.1 (0.0.224-160-g1ba8712)
C  4.022014    1.312678    -1.716242
C  2.958851    0.734122    -2.453006
C  1.705993    0.584550    -1.789719
C  1.306058    1.251947    -0.584249
C  2.291861    2.271567    -0.380326
C  3.600395    2.238438    -0.901314
C  1.918580    3.527854    0.099751
C  0.755100    3.816814    0.702483
C  -0.112501    2.723466    0.923685
C  0.151567    1.420479    0.324630
C  -1.056745    0.638641    0.274681
C  -2.244305    1.331874    0.725099
C  -2.357258    2.517687    1.535957
C  -1.249975    3.227822    1.676558
C  -3.485029    1.034464    0.037322
C  -3.673776    -0.220568    -0.525786
C  -2.644321    -1.180504    -0.270929
C  -1.274494    -0.806802    0.019247
C  -0.384892    -1.924970    0.379084
C  0.622407    -1.933216    1.430425
C  1.264326    -3.131024    1.589905
C  1.138460    -4.265389    0.702901
C  0.085462    -4.381838    -0.163421
C  -0.811601    -3.269996    -0.074573
C  -2.149372    -3.463115    -0.538696
C  -3.085293    -2.519984    -0.438532
H  5.067158    1.378653    -2.019292
H  3.262194    0.365018    -3.446136
H  0.961807    -0.083378    -2.336936
H  4.338184    2.930713    -0.496911
H  2.430754    4.370982    -0.306661
H  0.379246    4.800137    0.643972
H  -3.256470    2.715136    2.079280
H  -1.267712    4.039292    2.400471
H  -4.278415    1.778155    0.152735
H  -4.552495    -0.649071    -1.013021
H  1.045261    -1.074717    1.927487
H  2.106067    -3.157404    2.246918
H  1.915510    -4.998162    0.569110
H  0.084094    -5.043628    -1.031431
H  -2.614803    -4.433371    -0.382230
H  -4.152480    -2.659257    -0.308465
42
10 2.494907 ** Energy =   0.000000 Eh ** Charge = 0 ** Spin = 0 ** Curcuma 0.1 (0.0.224-160-g1ba8712)
C  3.483149    1.378227    -2.357929
C  2.207440    1.324261    -2.862755
C  1.085115    1.356178    -2.074790
C  1.172578    1.519273    -0.672504
C  2.500986    1.884374    -0.171290
C  3.614341    1.618530    -0.983600
C  2.687289    2.745173    0.976829
C  1.504503    3.303434    1.441512
C  0.119576    2.679146    1.207827
C  -0.006332    1.606349    0.262586
C  -1.176599    0.647017    0.024537
C  -2.375320    1.278556    0.374724
C  -2.322023    2.451376    1.273155
C  -1.163736    3.182871    1.579690
C  -3.619724    0.638937    0.080567
C  -3.697142    -0.514721    -0.518601
C  -2.602142    -1.327256    -0.650699
C  -1.351083    -0.818267    -0.138742
C  -0.533664    -1.824244    0.440454
C  0.728768    -1.552783    0.877625
C  1.439902    -2.532342    1.534773
C  0.977785    -3.837868    1.612905
C  -0.165391    -4.202881    0.971586
C  -0.864300    -3.184030    0.262099
C  -1.735063    -3.607812    -0.738857
C  -2.671246    -2.712473    -1.189945
H  4.330500    1.125915    -2.993079
H  2.106857    1.856969    -3.804225
H  0.206018    1.764637    -2.570538
H  4.583749    1.543043    -0.532918
H  3.666680    3.182968    1.213513
H  1.523031    4.281458    1.863666
H  -3.287830    2.776476    1.622135
H  -1.226360    4.120566    2.153787
H  -4.561805    1.189418    0.193045
H  -4.683093    -0.816801    -0.882260
H  1.108046    -0.541425    0.705159
H  2.456533    -2.359968    1.879301
H  1.619029    -4.621579    2.021266
H  -0.543336    -5.220224    0.978766
H  -1.659775    -4.645301    -1.103405
H  -3.528757    -2.928419    -1.781960
42
11 2.845045 ** Energy =   0.000000 Eh ** Charge = 0 ** Spin = 0 ** Curcuma 0.1 (0.0.224-160-g1ba8712)
C  2.952560    1.674018    -2.449529
C  1.697189    1.211357    -2.981098
C  0.632685    1.057065    -2.145490
C  0.981927    1.278387    -0.804432
C  2.253210    1.471196    -0.269476
C  3.317207    1.688976    -1.180724
C  2.387026    1.323498    1.139339
C  1.495364    1.676316    2.074967
C  0.171173    1.919463    1.544828
C  -0.008847    1.536618    0.155688
C  -1.200553    0.854105    -0.173826
C  -2.364711    1.367978    0.328630
C  -2.226508    2.559678    1.095597
C  -1.055410    2.817155    1.774119
C  -3.585757    0.723852    -0.016236
C  -3.558749    -0.444727    -0.806984
C  -2.317352    -1.117924    -1.061322
C  -1.105079    -0.534390    -0.564576
C  -0.043975    -1.459277    0.042785
C  1.247469    -1.180536    0.670198
C  1.528490    -1.792093    1.880619
C  0.827026    -2.906788    2.250572
C  -0.114467    -3.462834    1.412729
C  -0.549696    -2.797662    0.251148
C  -1.626477    -3.310846    -0.551903
C  -2.350838    -2.514602    -1.316522
H  3.591992    2.276258    -3.086931
H  1.622300    1.090019    -4.053590
H  -0.337065    0.574780    -2.374423
H  4.094563    2.393803    -0.883569
H  3.215516    0.696910    1.425581
H  1.609592    1.358548    3.094351
H  -2.962392    3.329299    0.896224
H  -0.899987    3.879441    1.920377
H  -4.383400    1.034439    0.639934
H  -4.375650    -1.131511    -0.924946
H  1.994201    -0.605101    0.178196
H  2.153499    -1.373121    2.643708
H  0.869819    -3.135998    3.304611
H  -0.797422    -4.129309    1.914576
H  -1.994925    -4.333513    -0.512796
H  -3.021859    -2.873081    -2.096287
42
12 2.139813 ** Energy =   0.000000 Eh ** Charge = 0 ** Spin = 0 ** Curcuma 0.1 (0.0.224-160-g1ba8712)
C  3.195463    -0.281315    -1.721177
C  1.883111    -0.438428    -2.226148
C  0.820858    0.410915    -1.952384
C  0.961440    1.307925    -0.889902
C  2.243538    1.467950    -0.361868
C  3.372005    0.762375    -0.859728
C  2.345187    2.118487    0.933618
C  1.297332    2.818853    1.467981
C  -0.062625    2.705367    1.000606
C  -0.194870    1.685683    0.005714
C  -1.419492    0.912679    0.215562
C  -2.590608    1.512661    0.853881
C  -2.419871    2.713921    1.625499
C  -1.157044    3.270337    1.765518
C  -3.764022    0.663673    0.685920
C  -3.832541    -0.356846    -0.252079
C  -2.622015    -1.035935    -0.657312
C  -1.434429    -0.527531    -0.090526
C  -0.339784    -1.342210    0.184598
C  0.715386    -0.743472    0.949754
C  1.720770    -1.566055    1.357603
C  1.722055    -2.894501    1.038638
C  0.762690    -3.465000    0.223508
C  -0.322582    -2.632689    -0.268594
C  -1.350679    -3.014058    -1.194909
C  -2.436264    -2.198080    -1.510162
H  4.015097    -0.827196    -2.188113
H  1.799609    -1.316153    -2.835621
H  -0.197025    0.190374    -2.288782
H  4.372116    1.139147    -0.698879
H  3.312242    2.524679    1.159066
H  1.569942    3.422047    2.291478
H  -3.190980    3.095379    2.266270
H  -0.766114    3.426960    2.785768
H  -4.564172    0.653741    1.427126
H  -4.813559    -0.568317    -0.665546
H  0.718644    0.310604    1.163006
H  2.536997    -1.078353    1.857410
H  2.678820    -3.338144    1.247080
H  0.927610    -4.456019    -0.172748
H  -1.305210    -4.052714    -1.534986
H  -3.260696    -2.656737    -2.019587
42
13 1.790015 ** Energy =   0.000000 Eh ** Charge = 0 ** Spin = 0 ** Curcuma 0.1 (0.0.224-160-g1ba8712)
C  3.588274    -0.112180    -1.029394
C  2.574074    -0.055760    -2.042764
C  1.321183    0.468071    -1.779174
C  1.105888    1.088455    -0.507996
C  2.236701    1.310849    0.425757
C  3.394821    0.411154    0.255891
C  2.199367    2.425567    1.251258
C  1.093841    3.229157    1.241948
C  -0.117834    2.919714    0.500895
C  -0.196077    1.614869    -0.153103
C  -1.382133    0.977739    0.419412
C  -2.585535    1.804176    0.502359
C  -2.572987    3.226169    0.203037
C  -1.304738    3.799205    0.485254
C  -3.846383    1.120867    0.516494
C  -3.922816    -0.218708    0.208582
C  -2.725103    -0.925617    -0.035609
C  -1.438306    -0.446347    0.327617
C  -0.241771    -1.380621    0.137453
C  1.137182    -1.387311    0.598373
C  1.985253    -2.499557    0.545071
C  1.780829    -3.646672    -0.218801
C  0.456762    -3.728408    -0.461875
C  -0.524516    -2.691872    -0.353473
C  -1.884813    -3.133428    -0.414193
C  -2.924014    -2.288290    -0.127966
H  4.471856    -0.736150    -1.146485
H  2.860844    -0.608073    -2.916190
H  0.450787    0.255663    -2.396320
H  4.096365    0.052863    1.019452
H  3.030900    2.716145    1.887683
H  0.958056    3.780385    2.171145
H  -3.500011    3.691663    -0.133884
H  -1.158376    4.851199    0.645125
H  -4.789618    1.640355    0.611553
H  -4.804276    -0.677838    -0.234982
H  1.539144    -0.599809    1.221555
H  2.947699    -2.193681    0.967749
H  2.390966    -4.529970    -0.386426
H  -0.013242    -4.615781    -0.894341
H  -2.092786    -4.178439    -0.557908
H  -3.915144    -2.695226    -0.107762
42
14 1.421006 ** Energy =   0.000000 Eh ** Charge = 0 ** Spin = 0 ** Curcuma 0.1 (0.0.224-160-g1ba8712)
C  4.423181    0.953734    -0.513733
C  3.514148    -0.087812    -0.780069
C  2.118962    0.122387    -0.629057
C  1.494026    1.169568    0.007635
C  2.555558    2.097797    0.377965
C  3.925045    2.054534    0.065290
C  2.350310    3.441864    0.825104
C  1.061325    3.781491    0.747928
C  -0.086201    2.946771    0.353475
C  0.086367    1.535594    0.175823
C  -1.182751    0.690987    0.390833
C  -2.375035    1.531194    0.454045
C  -2.496780    2.966939    0.384126
C  -1.332325    3.528879    0.332246
C  -3.667498    0.977862    0.384478
C  -3.966045    -0.315338    0.395192
C  -2.815824    -1.146572    0.323721
C  -1.487433    -0.708960    0.086439
C  -0.626312    -1.830601    -0.289474
C  0.735868    -1.892286    0.176042
C  1.495575    -3.007625    -0.181062
C  0.995046    -4.073674    -0.967861
C  -0.375531    -4.126177    -1.116599
C  -1.216429    -3.101157    -0.585389
C  -2.548323    -3.448122    -0.065883
C  -3.348016    -2.449373    0.207164
H  5.487620    0.892342    -0.644327
H  3.841794    -0.899343    -1.429625
H  1.420073    -0.465231    -1.230866
H  4.499436    2.938975    0.267208
H  3.138108    4.071058    1.200120
H  0.781054    4.785459    1.006497
H  -3.356457    3.626325    0.422416
H  -1.326820    4.594229    0.118011
H  -4.502636    1.638084    0.205519
H  -4.960602    -0.723086    0.499000
H  1.048025    -1.155420    0.898197
H  2.498968    -3.075144    0.198031
H  1.739535    -4.747862    -1.356827
H  -0.838203    -4.987652    -1.540675
H  -2.911311    -4.463174    -0.106913
H  -4.368560    -2.666942    0.489590
42
15 2.207566 ** Energy =   0.000000 Eh ** Charge = 0 ** Spin = 0 ** Curcuma 0.1 (0.0.224-160-g1ba8712)
C  3.988345    2.129641    -1.760592
C  3.283816    1.005257    -2.056596
C  2.064258    0.706218    -1.527992
C  1.429423    1.471450    -0.443890
C  2.263704    2.596916    -0.062533
C  3.435199    2.944188    -0.833537
C  2.204953    2.901767    1.343598
C  1.121641    2.489544    2.030059
C  -0.095673    1.997467    1.393352
C  0.098305    1.181544    0.308916
C  -1.138459    0.599349    -0.257124
C  -2.228837    1.493597    -0.239575
C  -2.195813    2.703755    0.587267
C  -1.303576    2.649774    1.572931
C  -3.569966    1.043948    -0.514431
C  -3.932723    -0.235240    -0.267316
C  -2.927010    -1.242677    -0.372919
C  -1.566195    -0.869009    -0.290811
C  -0.559964    -1.852896    0.066208
C  0.940214    -1.836734    0.002527
C  1.812345    -2.922400    0.132997
C  1.198801    -4.012166    0.752882
C  -0.150098    -4.068651    0.805283
C  -1.128227    -3.124775    0.408226
C  -2.482068    -3.515777    0.021550
C  -3.400293    -2.602823    -0.384423
H  4.725623    2.552700    -2.429368
H  3.792681    0.309702    -2.703668
H  1.662824    -0.230207    -1.912482
H  3.983440    3.826167    -0.565453
H  3.012799    3.383055    1.842219
H  1.174699    2.913694    3.034733
H  -2.953456    3.470747    0.535938
H  -1.419250    3.069551    2.570529
H  -4.387433    1.747789    -0.521963
H  -4.960618    -0.533830    -0.042590
H  1.428807    -0.885773    -0.146649
H  2.853615    -3.023369    -0.130995
H  1.736319    -4.930281    0.921987
H  -0.589924    -5.038274    0.976184
H  -2.696958    -4.579943    0.100054
H  -4.353192    -2.919817    -0.813315
42
16 2.701008 ** Energy =   0.000000 Eh ** Charge = 0 ** Spin = 0 ** Curcuma 0.1 (0.0.224-160-g1ba8712)
C  2.809246    1.515031    -2.657772
C  2.475880    0.217670    -2.133832
C  1.523306    0.144016    -1.110050
C  1.331161    1.279950    -0.408386
C  2.068025    2.530233    -0.672266
C  2.681485    2.735824    -1.998719
C  2.091229    3.639678    0.286118
C  1.264939    3.450250    1.293817
C  0.157322    2.442012    1.398736
C  0.228266    1.368885    0.583889
C  -0.957371    0.509820    0.399640
C  -2.257046    0.977820    0.896874
C  -2.166252    2.053182    1.905677
C  -0.963629    2.695991    2.230273
C  -3.358117    0.527872    0.151817
C  -3.221737    -0.001507    -1.112269
C  -2.110585    -0.788110    -1.173296
C  -1.110435    -0.740014    -0.223420
C  -0.368300    -1.801068    0.337433
C  0.367187    -1.803573    1.608088
C  0.727769    -2.930261    2.294349
C  0.390390    -4.139508    1.702680
C  -0.237799    -4.128125    0.502675
C  -0.591347    -3.012006    -0.217215
C  -1.298534    -3.015520    -1.503019
C  -2.032949    -2.011583    -1.897687
H  3.110646    1.464208    -3.664274
H  3.062358    -0.716083    -2.489685
H  1.213400    -0.944141    -0.912550
H  2.701289    3.737752    -2.421954
H  2.774147    4.550867    0.144596
H  1.459656    3.823112    2.333637
H  -2.984586    2.119608    2.505093
H  -1.097163    3.643454    2.631946
H  -4.312586    0.991081    0.420569
H  -3.982611    -0.348067    -1.793766
H  0.497162    -0.805705    2.115005
H  1.175452    -3.058023    3.318822
H  0.704530    -5.028342    2.110290
H  -0.395272    -5.108298    -0.001601
H  -1.435169    -3.991833    -1.892134
H  -2.817908    -2.218845    -2.523901
