3
 energy: -5.504066162388 gnorm: 0.000359872239 xtb: 6.6.1 (8d0f1dd)
C            0.07870710139662       -0.00240718927161        0.00078359763227
H            0.16222966861036        0.89289385576153        0.55882146230569
N           -0.01095077000698       -0.96469966648992       -0.59916605993796
