3
 energy: -11.927956259976 gnorm: 0.000666997138 xtb: 6.6.1 (8d0f1dd)
O           -0.16331913883654       -0.00905959339555        0.32664056152709
O            0.41166184599637        1.08471208565406        0.36186601968926
O            0.06727929284017       -0.80743949225851       -0.58803158121635
