3
 energy: -0.327655852825 gnorm: 0.000599273164 xtb: 6.6.1 (8d0f1dd)
O           -0.00000000000000        0.00000000000000        0.11018406146273
H            0.00000000000000        0.77606994200129       -0.47250803073136
H            0.00000000000000       -0.77606994200129       -0.47250803073136
