5
 ** Energy =  -0.285468 Eh ** Charge = 0 ** Spin = 0 ** Curcuma 0.1 (0.0.189-24-gc4b0357)
C  -0.000000    0.000000    -0.000000
H  0.809119    -0.251206    0.673336
H  0.326277    0.773048    -0.683447
H  -0.288545    -0.879257    -0.561078
H  -0.846852    0.357415    0.571189
5
 ** Energy =   0.408386 Eh ** Charge = 0 ** Spin = 0 ** Curcuma 0.1 (0.0.189-24-gc4b0357)
C  0.272843    -0.008482    0.008996
H  0.615205    -0.191002    0.511964
H  0.390953    0.714348    -0.587443
H  -0.221228    -0.961298    -0.646969
H  -1.057773    0.446434    0.713452
5
 ** Energy =  -0.308393 Eh ** Charge = 0 ** Spin = 0 ** Curcuma 0.1 (0.0.189-24-gc4b0357)
C  0.059113    0.005492    -0.021536
H  0.771811    -0.243417    0.653032
H  0.345331    0.757964    -0.657161
H  -0.269383    -0.902721    -0.585821
H  -0.906872    0.382682    0.611486
5
 ** Energy =  -0.317990 Eh ** Charge = 0 ** Spin = 0 ** Curcuma 0.1 (0.0.189-24-gc4b0357)
C  0.070252    0.005701    -0.024303
H  0.764188    -0.241668    0.648493
H  0.350393    0.756190    -0.652416
H  -0.265236    -0.908035    -0.591514
H  -0.919597    0.387812    0.619740
5
 ** Energy =  -0.330649 Eh ** Charge = 0 ** Spin = 0 ** Curcuma 0.1 (0.0.189-24-gc4b0357)
C  0.090999    -0.006596    -0.019628
H  0.745063    -0.237034    0.637065
H  0.381688    0.770603    -0.646282
H  -0.249206    -0.932155    -0.618852
H  -0.968543    0.405182    0.647697
5
 ** Energy =  -0.337586 Eh ** Charge = 0 ** Spin = 0 ** Curcuma 0.1 (0.0.189-24-gc4b0357)
C  0.110108    -0.010320    -0.024098
H  0.726600    -0.239591    0.637072
H  0.424476    0.789823    -0.629869
H  -0.227700    -0.966262    -0.662066
H  -1.033483    0.426350    0.678961
5
 ** Energy =  -0.358710 Eh ** Charge = 0 ** Spin = 0 ** Curcuma 0.1 (0.0.189-24-gc4b0357)
C  0.122919    -0.010280    -0.040274
H  0.706120    -0.256874    0.662131
H  0.467041    0.818958    -0.612432
H  -0.204761    -0.993669    -0.708731
H  -1.091320    0.441865    0.699306
5
 ** Energy =  -0.382438 Eh ** Charge = 0 ** Spin = 0 ** Curcuma 0.1 (0.0.189-24-gc4b0357)
C  0.139698    -0.012304    -0.051325
H  0.653165    -0.298965    0.711451
H  0.516420    0.865523    -0.589728
H  -0.169705    -1.002685    -0.768156
H  -1.139578    0.448430    0.697759
5
 ** Energy =  -0.397287 Eh ** Charge = 0 ** Spin = 0 ** Curcuma 0.1 (0.0.189-24-gc4b0357)
C  0.129371    -0.004599    -0.052286
H  0.609254    -0.332883    0.744196
H  0.544223    0.872200    -0.548386
H  -0.130995    -0.977679    -0.812719
H  -1.151852    0.442961    0.669196
5
 ** Energy =  -0.415763 Eh ** Charge = 0 ** Spin = 0 ** Curcuma 0.1 (0.0.189-24-gc4b0357)
C  0.095892    0.008956    -0.036297
H  0.500086    -0.408093    0.807452
H  0.601314    0.875726    -0.439719
H  -0.035787    -0.898985    -0.914110
H  -1.161504    0.422396    0.582673
5
 ** Energy =  -0.424666 Eh ** Charge = 0 ** Spin = 0 ** Curcuma 0.1 (0.0.189-24-gc4b0357)
C  0.050022    0.016995    -0.002667
H  0.393681    -0.475515    0.847717
H  0.645186    0.860982    -0.309065
H  0.064733    -0.796109    -1.008548
H  -1.153622    0.393647    0.472563
5
 ** Energy =  -0.431672 Eh ** Charge = 0 ** Spin = 0 ** Curcuma 0.1 (0.0.189-24-gc4b0357)
C  -0.003376    0.022181    0.056737
H  0.224807    -0.600828    0.881021
H  0.706091    0.822996    -0.041559
H  0.250031    -0.589908    -1.153581
H  -1.177553    0.345559    0.257382
5
 ** Energy =  -0.452470 Eh ** Charge = 0 ** Spin = 0 ** Curcuma 0.1 (0.0.189-24-gc4b0357)
C  -0.041946    0.004050    0.102836
H  0.070918    -0.721115    0.878633
H  0.749750    0.763202    0.262832
H  0.442456    -0.337345    -1.234600
H  -1.221176    0.291208    -0.009702
5
 ** Energy =  -0.464230 Eh ** Charge = 0 ** Spin = 0 ** Curcuma 0.1 (0.0.189-24-gc4b0357)
C  -0.091844    -0.021551    0.158189
H  -0.130087    -0.857164    0.793010
H  0.720217    0.612927    0.743511
H  0.702621    0.078159    -1.209680
H  -1.200906    0.187628    -0.485030
5
 ** Energy =  -0.437315 Eh ** Charge = 0 ** Spin = 0 ** Curcuma 0.1 (0.0.189-24-gc4b0357)
C  -0.088458    -0.067847    0.139217
H  -0.124864    -0.832842    0.681330
H  0.641690    0.575876    0.818401
H  0.690265    0.160295    -1.087320
H  -1.118633    0.164518    -0.551629
5
 ** Energy =  -0.415797 Eh ** Charge = 0 ** Spin = 0 ** Curcuma 0.1 (0.0.189-24-gc4b0357)
C  -0.035263    -0.108573    0.085668
H  -0.190602    -0.862474    0.514007
H  0.523410    0.517472    1.017433
H  0.720854    0.332421    -0.875140
H  -1.018399    0.121154    -0.741969
5
 ** Energy =  -0.438320 Eh ** Charge = 0 ** Spin = 0 ** Curcuma 0.1 (0.0.189-24-gc4b0357)
C  0.280516    -0.113593    -0.172264
H  -0.355574    -0.973018    -0.093811
H  0.028349    0.332629    1.507377
H  0.694951    0.738979    0.020442
H  -0.648242    0.015002    -1.261744
5
 ** Energy =  -0.444629 Eh ** Charge = 0 ** Spin = 0 ** Curcuma 0.1 (0.0.189-24-gc4b0357)
C  0.107654    -0.068076    -0.042896
H  -0.255801    -0.948762    0.036298
H  0.117820    0.287698    1.343613
H  0.742567    0.698951    -0.153946
H  -0.712239    0.030189    -1.183069
5
 ** Energy =  -0.456938 Eh ** Charge = 0 ** Spin = 0 ** Curcuma 0.1 (0.0.189-24-gc4b0357)
C  -0.043027    0.012341    0.125531
H  -0.155697    -0.949072    0.091299
H  0.098402    0.154754    1.211914
H  0.813856    0.760105    -0.205497
H  -0.713534    0.021873    -1.223247
5
 ** Energy =  -0.506220 Eh ** Charge = 0 ** Spin = 0 ** Curcuma 0.1 (0.0.189-24-gc4b0357)
C  -0.003904    0.019258    0.105917
H  -0.138118    -0.976316    -0.172767
H  -0.184349    -0.034225    1.366314
H  0.863107    1.019203    0.187424
H  -0.536735    -0.027920    -1.486889
5
 ** Energy =  -0.480817 Eh ** Charge = 0 ** Spin = 0 ** Curcuma 0.1 (0.0.189-24-gc4b0357)
C  0.126766    0.019737    0.064323
H  0.064657    -0.869898    -0.292485
H  -0.435964    -0.096499    1.110194
H  0.697993    0.919481    0.482107
H  -0.453451    0.027178    -1.364139
5
 ** Energy =  -0.511233 Eh ** Charge = 0 ** Spin = 0 ** Curcuma 0.1 (0.0.189-24-gc4b0357)
C  0.193704    0.050248    0.107585
H  0.365174    -0.763394    -0.447906
H  -0.774096    -0.262811    0.792294
H  0.547418    0.888375    0.838211
H  -0.332201    0.087583    -1.290185
