15
 energy: -26.162163870557 gnorm: 0.000687190214 xtb: 6.6.0 (8843059)
H            1.49574345397488        1.16281825573451        0.28849847338774
H           -0.49945625222174       -2.53040659067913       -0.53071797893969
H            0.16194648100926       -0.87962369198586        0.35253076320581
C            3.22412736186075       -2.24117494192853       -0.20154564030214
C            3.97051978668812       -1.07886850522647       -0.23108198001996
C            3.34784608607901        0.14765154772948       -0.06232336424791
C            1.97897334251832        0.20833216808745        0.14161901458194
C            1.22521319238394       -0.95170242664151        0.16076903226233
C            1.84402933789503       -2.18703464982174       -0.01791521590997
C            1.09952904099103       -3.47995606086188        0.00132142847995
O           -0.21243863808497       -3.42313523883092       -0.29781606419764
O            1.62179782894737       -4.52960069465670        0.25829369761659
H            3.92945856088550        1.05722760598657       -0.08135305033683
H            5.03838404064105       -1.12730466913327       -0.38177929265508
H            3.68742240287454       -3.20834081773612       -0.32281097212030
