6
 energy: -8.226117409900 gnorm: 0.000622942382 xtb: 6.6.0 (8843059)
C           -4.39019608206338        1.80749146124850       -0.05236110118918
H           -3.55446893679818        1.51846523808356        0.59390888890703
H           -4.04190865425030        2.55246475669577       -0.77579148135144
H           -4.74205299752436        0.92930974600559       -0.59009212821488
O           -5.48388747837165        2.28133056625900        0.69456006621008
H           -5.21119853581715        3.06238366739865        1.18714027466186
