66
 energy: -9.914550457345 gnorm: 0.000259047525 xtb: 6.6.0 (8843059)
O           -1.40061803334890       -0.80942717572896       -0.34337597989552
O            1.53316310502448       -1.49538354381344        1.78152005399115
O           -2.00120386217325        1.07682457880324       -1.66448061762132
O            3.15994040771947        0.27214187629512        1.97926924744958
O           -3.33626244412302        1.68925557678831       -4.26395582431840
O            0.94322536615257        1.50950661638747        2.11459112054682
O            0.07482803556887        2.54052746046758       -0.51209245278707
O           -4.94845678581513       -0.99917841492507       -2.53123346209342
O            2.72219151483306       -2.83427614936774        3.89096354179649
O            5.35761706724793       -1.97400401701486        4.72211354486759
O            5.85638609464848        0.83469105172492        4.45475621824233
O           -4.38332980792981        2.52904359785480       -1.68640874442283
O           -1.17536914948270       -3.67888530772983       -0.45824427935916
O           -5.42720805496227        0.71834321404111       -4.73225121864147
O           -3.09969209339869       -0.26663772373804       -6.21917096475408
O            3.42490819148654        3.09153187061587        1.80546406109622
C            0.38244666810487       -0.74850991124721        1.37289586817396
C            0.72599076426904        0.70721853168916        0.95531357730049
C           -0.39799277865752        1.36987311827376        0.12100070812675
C           -0.30128761431043       -1.53232929346427        0.21730619317494
C           -0.98094615043779        0.41557788403595       -0.94248181786304
C           -2.75277997212893        0.14540511590196       -2.44781548843179
C            2.43412385939391       -0.78854257461071        2.61611731802661
C           -4.24106056016905        0.11386212844143       -2.00032214229596
C           -2.61006383098704        0.50039024774015       -3.94938513174134
C            3.42619445457924       -1.79435007293676        3.24895291501443
C            4.38042047472843       -1.08331677029755        4.22993776532273
C            5.04490786406374        0.12654022535710        3.53629896899429
C           -4.92333841805124        1.44388575997402       -2.41313397206753
C            3.95027100816946        1.02485824303900        2.90972246208670
C           -0.76738277787312       -2.91790784617784        0.65261443442877
C           -4.72471854425775        1.66138594249937       -3.93862003588727
C           -2.90339677553291       -0.68197376973269       -4.88543759861231
C            4.49150820247133        2.27448649387805        2.23034226787963
H           -0.29192929196083       -0.70822727224250        2.23736124765467
H            1.65285622488814        0.68668504812908        0.36214649567595
H           -1.20045025545533        1.67338658452875        0.80842928537644
H            0.43311285776526       -1.66363558029265       -0.58996196717717
H           -0.19788835817943        0.17204541617325       -1.67301784219917
H           -2.33119553910004       -0.85753541168381       -2.27262253991414
H            1.82444101779611       -0.33665045552878        3.40953966736126
H           -4.26883274234705        0.01351889656874       -0.90399592155061
H           -1.56676701068330        0.81445144320606       -4.11846550430619
H            4.02275827159211       -2.25074473393874        2.44624682163236
H            3.80621195214060       -0.72441269694983        5.09626669857894
H            5.70072117297039       -0.24126309858647        2.73407221591834
H           -5.99902266606841        1.40116420201867       -2.18627992964425
H            3.26964006383458        1.34448005812864        3.71158726337368
H            0.04445033922872       -3.44571689613604        1.16749397086690
H           -1.60766240586861       -2.81233536077093        1.34853420167972
H           -5.10688668388601        2.65913707555163       -4.21072905227159
H           -3.80715280138093       -1.20226410550224       -4.55621682149433
H           -2.08582651160358       -1.41254854529698       -4.84236197026473
H            1.76689877367069        2.04849307116034        2.00517419509526
H           -0.58527375578277        2.82650121977996       -1.17998739689521
H            5.09253650880169        1.98389911440889        1.36127365677415
H            5.13056724166115        2.83703498504555        2.92223984324463
H           -5.36408400750835       -0.70063847541452       -3.37026308812566
H            1.97797536143113       -3.10122731810446        3.30743817882703
H            4.91986350331789       -2.81290994473232        4.97540431702265
H            6.38455137145416        0.18984324506068        4.96860254262396
H           -3.41286780408589        2.39019561552898       -1.66379701439588
H           -1.57645513166163       -4.53323291682405       -0.18144425391194
H           -4.79988940626500        0.47068422050990       -5.45073858114971
H           -3.10895947082185       -1.03184814047505       -6.83723890383729
H            3.75164375587419        3.88304379085760        1.32443964830440
