5
 energy: -0.630814972970 gnorm: 0.006300875334 xtb: 6.6.1 (8d0f1dd)
C           -6.52745801014127        1.22559601369319        0.00000199477487
H           -5.71833882788279        0.97438995382583        0.67333841923947
H           -6.20118058043256        1.99864435246030       -0.68344482547359
H           -6.81600263252576        0.34633873760782       -0.56107634994743
H           -7.37430994901762        1.58301094241287        0.57119076140667
5
 energy: -0.625119537947 gnorm: 0.085814508771 xtb: 6.6.1 (8d0f1dd)
C           -6.51679858001179        1.24585324512964       -0.03836189772022
H           -5.70367789284212        1.01872784409454        0.63001090984941
H           -6.18821695648502        1.97078728659625       -0.65320847100873
H           -6.83058779251261        0.37941154066275       -0.58799679488574
H           -7.36494325061732        1.52704424817525        0.54637874852094
5
 energy: -0.620992176705 gnorm: 0.071317636704 xtb: 6.6.1 (8d0f1dd)
C           -6.52170444277744        1.22874086921653       -0.03597695450726
H           -5.64068594689166        1.04029021079337        0.68424165566120
H           -6.10418075318878        2.02475878174752       -0.68444410466706
H           -6.88139086558536        0.32293920758240       -0.65084806482990
H           -7.44643757128130        1.55936577633399        0.57907367554481
5
 energy: -0.623525302615 gnorm: 0.066215301204 xtb: 6.6.1 (8d0f1dd)
C           -6.53248689244423        1.20178211808544       -0.02311859931619
H           -5.68483937332163        1.07401664610173        0.65263124506747
H           -6.06019209065903        2.03384184535977       -0.67504630995008
H           -6.87704804202191        0.37454937069741       -0.62453487584817
H           -7.41823934211884        1.54589472430571        0.53636352536272
5
 energy: -0.615189259286 gnorm: 0.115335989262 xtb: 6.6.1 (8d0f1dd)
C           -6.53902851149511        1.20133174802859       -0.01941079555225
H           -5.73669808089667        1.09620376361858        0.63654555690167
H           -6.04701623030095        1.98536060394203       -0.63972964001955
H           -6.86424631920263        0.43377699500485       -0.59610670196750
H           -7.37271580302651        1.51431354285168        0.47757100677291
5
 energy: -0.621384079063 gnorm: 0.058997321423 xtb: 6.6.1 (8d0f1dd)
C           -6.53450193823699        1.22230587117762       -0.02845870799659
H           -5.67518978201449        1.06721873198595        0.72699410761958
H           -6.01991424841153        2.00317412468550       -0.66412373291483
H           -6.88392657842887        0.34509466237000       -0.65793304192689
H           -7.45523769355568        1.55118872290643        0.50051091061347
5
 energy: -0.615329514649 gnorm: 0.101433556998 xtb: 6.6.1 (8d0f1dd)
C           -6.52042024190015        1.23747633034930       -0.03600259032150
H           -5.68692890012182        1.07414771881140        0.74141688474804
H           -6.02423781691991        1.96041048610774       -0.61869573306623
H           -6.88044898431211        0.30604055120185       -0.68957131051492
H           -7.48493548498818        1.58052539117870        0.49495029679075
5
 energy: -0.618315348199 gnorm: 0.085411467292 xtb: 6.6.1 (8d0f1dd)
C           -6.51898998619240        1.21994561412238       -0.02994437643170
H           -5.78972248713408        1.10051757626109        0.68988639894040
H           -6.02151899865100        1.92253573085388       -0.58610263349221
H           -6.84375466181605        0.40507893313733       -0.62682950758236
H           -7.42584964463470        1.54563110773221        0.43295497832780
5
 energy: -0.623314324877 gnorm: 0.075045000598 xtb: 6.6.1 (8d0f1dd)
C           -6.53030868332917        1.19786103927187       -0.02509546025461
H           -5.78647151054726        1.08611034879902        0.74342447456169
H           -5.97672938885942        1.98379985957974       -0.63542830849897
H           -6.81559200817419        0.38994830945862       -0.63638443830365
H           -7.46806641414451        1.58021782914545        0.42373774553347
5
 energy: -0.617586711245 gnorm: 0.089157431074 xtb: 6.6.1 (8d0f1dd)
C           -6.54296342170262        1.20258468697419       -0.01887333678029
H           -5.76752818697861        1.06708006209552        0.81056953506965
H           -5.95802427163368        2.01862035713521       -0.66721419736276
H           -6.78502159289180        0.31465739414647       -0.68927201269485
H           -7.49828709009952        1.62553491234634        0.42258307783369
5
 energy: -0.624834187811 gnorm: 0.065324265246 xtb: 6.6.1 (8d0f1dd)
C           -6.53864986171643        1.22442544228921       -0.02579064306564
H           -5.83313288673351        1.08442826294975        0.78437783786553
H           -6.02303991564827        1.91751972541213       -0.58570919118010
H           -6.73460478371980        0.33609172474086       -0.67831161102184
H           -7.43103581294777        1.62227212663449        0.37707985191534
5
 energy: -0.621656819019 gnorm: 0.101690976279 xtb: 6.6.1 (8d0f1dd)
C           -6.53232565892892        1.22359227414910       -0.03598515310257
H           -5.86856363375217        1.07913612819947        0.79895086877132
H           -6.04850019729227        1.89087763115657       -0.57922394900794
H           -6.69503511453923        0.34792696924030       -0.65708786411896
H           -7.42870403583038        1.64487285176367        0.36540872385536
5
 energy: -0.620451446578 gnorm: 0.078006882979 xtb: 6.6.1 (8d0f1dd)
C           -6.54228026205756        1.19385664804996       -0.03518682444956
H           -5.84054585591370        1.07102749601605        0.87303072999603
H           -6.00800808890299        1.96558599877462       -0.64737306719230
H           -6.66229676157633        0.29416654991764       -0.68927190455116
H           -7.50006174772916        1.72132022362617        0.38926489259403
5
 energy: -0.624132727631 gnorm: 0.070578046133 xtb: 6.6.1 (8d0f1dd)
C           -6.55543849238057        1.18453935332437       -0.01958651987070
H           -5.89390121288698        1.09103203218832        0.84600164541938
H           -6.00504560166968        1.96486560431625       -0.65542444011484
H           -6.63730598570494        0.31703506305835       -0.66954766593772
H           -7.43514964653033        1.70714446033447        0.35777832691573
5
 energy: -0.616542455492 gnorm: 0.111996630468 xtb: 6.6.1 (8d0f1dd)
C           -6.55749538743646        1.19504751761354       -0.00700015004029
H           -5.94952300687487        1.10262797236910        0.80619738879805
H           -6.04010388925126        1.90674445940399       -0.64678045444105
H           -6.61069902367365        0.34578146752189       -0.64369825356397
H           -7.36490032116956        1.69337056408464        0.32529629449633
5
 energy: -0.621585717033 gnorm: 0.054765666672 xtb: 6.6.1 (8d0f1dd)
C           -6.55011331001877        1.19610531177142       -0.01611700294741
H           -5.90970167440430        1.09787865483097        0.88917008592706
H           -6.02933891652808        1.92521482221744       -0.68949459842098
H           -6.60808624869735        0.25362550949684       -0.68515353714726
H           -7.44026544690392        1.76862925526764        0.35386805305719
5
 energy: -0.616244139237 gnorm: 0.079468906783 xtb: 6.6.1 (8d0f1dd)
C           -6.53985545042140        1.19087378017942       -0.03368191212028
H           -5.89835039958657        1.11585015282680        0.91505701703726
H           -6.05058084379809        1.88959043595641       -0.67735851629687
H           -6.60491696456267        0.24039525541779       -0.67857738355958
H           -7.46434518921715        1.81522103368790        0.36201075753089
5
 energy: -0.615730228754 gnorm: 0.087701118482 xtb: 6.6.1 (8d0f1dd)
C           -6.54528330705382        1.19038514305896       -0.03087201870009
H           -5.96359290562318        1.13313776115607        0.85070123692128
H           -6.08829505796393        1.82877657662821       -0.67213546496766
H           -6.59084924829222        0.31340998727871       -0.60166950900772
H           -7.35915804715640        1.78719977567712        0.33579838982154
5
 energy: -0.621689545657 gnorm: 0.057661431524 xtb: 6.6.1 (8d0f1dd)
C           -6.56091074063233        1.19308441712978       -0.01267859503888
H           -5.92719982196526        1.13520004730810        0.87652030457177
H           -6.05662072540727        1.85011687585731       -0.74927852147806
H           -6.60489969623874        0.26417086354492       -0.60093635803817
H           -7.36625077104788        1.80493124703320        0.33176012603400
5
 energy: -0.612319715328 gnorm: 0.100283707746 xtb: 6.6.1 (8d0f1dd)
C           -6.55677581505850        1.19683533458715        0.00120372416401
H           -5.89096234505631        1.14438277054663        0.89967664660857
H           -6.02432779741640        1.87724527942194       -0.82152537159522
H           -6.64508374846971        0.17652766707703       -0.60840213031990
H           -7.40701299847509        1.84500049695713        0.34663218898975
5
 energy: -0.621750025463 gnorm: 0.056035940970 xtb: 6.6.1 (8d0f1dd)
C           -6.53561286482343        1.19884090127704       -0.01216705061566
H           -5.91681771325108        1.16541957513707        0.83168260221815
H           -6.09141215390770        1.77514926960053       -0.77563877969604
H           -6.65409582814239        0.24262086334318       -0.53793683718513
H           -7.36860684565091        1.85394442296142        0.33842255951048
5
 energy: -0.617882921216 gnorm: 0.099756081547 xtb: 6.6.1 (8d0f1dd)
C           -6.52966216434945        1.20068642050131       -0.02769348006158
H           -5.89803332794948        1.18042863328688        0.81149203004387
H           -6.11149514843360        1.72967794608475       -0.76955234472246
H           -6.68435180993051        0.26809501574246       -0.47674952931818
H           -7.35492032759174        1.85339102492783        0.33796034973046
5
 energy: -0.620026847301 gnorm: 0.070395048789 xtb: 6.6.1 (8d0f1dd)
C           -6.54625317888988        1.20639764801590       -0.02151734002557
H           -5.79865561108041        1.18395886121952        0.86794814086008
H           -6.06908355934486        1.76195992429492       -0.85883252269724
H           -6.72798639186950        0.17753521822833       -0.47055788207498
H           -7.40325747812098        1.89098960496351        0.34604777293234
5
 energy: -0.623935867596 gnorm: 0.070885841015 xtb: 6.6.1 (8d0f1dd)
C           -6.55701780413183        1.21675967936524       -0.00282939694500
H           -5.80694347070970        1.19981085962427        0.81553196628283
H           -6.07575290847134        1.74117942580790       -0.88658505285176
H           -6.74732962780525        0.17719216335999       -0.42073650427868
H           -7.33663426571861        1.86514725443302        0.32028111265407
5
 energy: -0.618508627387 gnorm: 0.102727060874 xtb: 6.6.1 (8d0f1dd)
C           -6.54859807158380        1.21862157673848        0.00336330930138
H           -5.83581976398182        1.22139864760651        0.72319456509128
H           -6.10562536185559        1.67379338690291       -0.84858570836341
H           -6.75603437019652        0.24632804116720       -0.35999681614540
H           -7.29446257266671        1.83621893814284        0.29528474141610
5
 energy: -0.627091853039 gnorm: 0.040054987383 xtb: 6.6.1 (8d0f1dd)
C           -6.54030645922184        1.21155464701775       -0.00428810940486
H           -5.75330293214961        1.23757952335638        0.75373918572221
H           -6.08141313745462        1.68403501215968       -0.89750085609140
H           -6.79981724125067        0.18226003774574       -0.33692268475701
H           -7.38230584941192        1.89508419718254        0.31355592945999
5
 energy: -0.619617529991 gnorm: 0.080900972219 xtb: 6.6.1 (8d0f1dd)
C           -6.54196498006329        1.20327169532300       -0.01559962693621
H           -5.69002455158295        1.26548447874972        0.75325138925079
H           -6.07308610365073        1.66797345426128       -0.88863734301276
H           -6.81783672013604        0.15739636466618       -0.31117544199682
H           -7.43091177094427        1.93297555908667        0.31339788251691
5
 energy: -0.623876982303 gnorm: 0.060774407210 xtb: 6.6.1 (8d0f1dd)
C           -6.55288755240861        1.20932414511962       -0.00453024129234
H           -5.73968948234078        1.29007545244880        0.66976558208564
H           -6.08224506020717        1.62985132312747       -0.84704124113305
H           -6.81171153609189        0.23005413772308       -0.26163928960724
H           -7.34541603472706        1.85567534945073        0.27251356852685
5
 energy: -0.623076334887 gnorm: 0.085969659352 xtb: 6.6.1 (8d0f1dd)
C           -6.56628769184688        1.22015547819134        0.01200515702111
H           -5.71697678117402        1.29863390874946        0.66372475556614
H           -6.04853614689242        1.62821455419325       -0.88691782676027
H           -6.81884540885704        0.21069691619811       -0.24590831273645
H           -7.35446739248938        1.83558781336691        0.25304942826673
5
 energy: -0.616213099139 gnorm: 0.097206210743 xtb: 6.6.1 (8d0f1dd)
C           -6.56734887162606        1.22743658239265        0.01070790090764
H           -5.65190054049152        1.32675632809388        0.70850604853957
H           -6.01817337350180        1.63878287430758       -0.93177104016599
H           -6.84474463562470        0.10858370621022       -0.24674058870928
H           -7.42082079227729        1.87714742899047        0.25784887481523
5
 energy: -0.622907753637 gnorm: 0.055874039267 xtb: 6.6.1 (8d0f1dd)
C           -6.54894514441248        1.22106316884751       -0.00808012250645
H           -5.68923270651506        1.35131153527295        0.66162892293610
H           -6.04404460203411        1.58505410975498       -0.83929158649606
H           -6.83106948987817        0.16868941205716       -0.22137813119781
H           -7.42655312025246        1.86535262723510        0.24329858606471
5
 energy: -0.615578691017 gnorm: 0.104693754231 xtb: 6.6.1 (8d0f1dd)
C           -6.54219025357728        1.20899673982801       -0.00895048325767
H           -5.73106556811676        1.36838113128961        0.63039139439271
H           -6.03953253477055        1.57052887986357       -0.80473783260134
H           -6.82023332684088        0.23404763459303       -0.19556848812533
H           -7.42035129141534        1.83368171162630        0.21678613592106
5
 energy: -0.617786319809 gnorm: 0.081575174297 xtb: 6.6.1 (8d0f1dd)
C           -6.55974220289204        1.20369281942606        0.00698386265483
H           -5.68135199617772        1.38434262030153        0.68457921027576
H           -5.96314070694672        1.60280492337486       -0.90148779687309
H           -6.81836767252709        0.16620702910516       -0.19513257422240
H           -7.49561938855457        1.86921078138658        0.21106656528325
5
 energy: -0.619453476716 gnorm: 0.070571456351 xtb: 6.6.1 (8d0f1dd)
C           -6.57039203089985        1.22204493762125        0.00727385264428
H           -5.69140862333109        1.40233470403364        0.69969635736171
H           -5.94808515593950        1.58716138108459       -0.89296652028605
H           -6.81609725566333        0.13663127745319       -0.19161509230201
H           -7.47091066137662        1.84133238038471        0.18303991139565
5
 energy: -0.615114887469 gnorm: 0.108513346251 xtb: 6.6.1 (8d0f1dd)
C           -6.56211415678408        1.24164864877235       -0.00802198039703
H           -5.76029272505652        1.39649721555824        0.66607994620393
H           -5.98688601418994        1.53743750137370       -0.79726703402642
H           -6.79713502353981        0.19181790724768       -0.17184840576458
H           -7.40704377347875        1.78284336945257        0.14711870251377
5
 energy: -0.623204615852 gnorm: 0.059900406156 xtb: 6.6.1 (8d0f1dd)
C           -6.55414595653342        1.23874116155869       -0.01434702463093
H           -5.75009382563420        1.40409318326068        0.72900746877880
H           -5.96641104009909        1.54301863213179       -0.82999029828211
H           -6.79717601370681        0.14174602604361       -0.16981477989149
H           -7.46160264402718        1.82846841746006        0.13387292728380
5
 energy: -0.618227762111 gnorm: 0.075281666306 xtb: 6.6.1 (8d0f1dd)
C           -6.54990129636452        1.21869179225614       -0.00610235175029
H           -5.75870616459604        1.41229193232862        0.76785651808628
H           -5.91433218143369        1.55200979122913       -0.88850866671554
H           -6.79232014562913        0.12344697283478       -0.16586671801408
H           -7.52267040487689        1.88977948241726        0.12483803739454
5
 energy: -0.622633728631 gnorm: 0.079360644392 xtb: 6.6.1 (8d0f1dd)
C           -6.55786228514240        1.21119197975340       -0.00095115863766
H           -5.82724142122422        1.40626324067364        0.73355682560368
H           -5.92572201845546        1.52785264600305       -0.84126189362522
H           -6.77064223501349        0.21749817489281       -0.14913118455995
H           -7.44051888841408        1.84843368405778        0.07968801832127
5
 energy: -0.623244149327 gnorm: 0.074690985748 xtb: 6.6.1 (8d0f1dd)
C           -6.56874615438693        1.22408925120554       -0.00784427388579
H           -5.84308736119111        1.39363020232048        0.76042470851237
H           -5.92509346664658        1.51205071016157       -0.83084983023674
H           -6.75541486725689        0.21134777011071       -0.13487043214626
H           -7.40784804824613        1.84429263272394        0.04884516630378
5
 energy: -0.619023788646 gnorm: 0.085430978943 xtb: 6.6.1 (8d0f1dd)
C           -6.56951799018842        1.23837330718609       -0.01896138781097
H           -5.80505877861342        1.40353975085118        0.85805770920789
H           -5.90600314191963        1.50832516033039       -0.86134576108059
H           -6.76540047364501        0.08832204201342       -0.14462710718799
H           -7.45266377017017        1.91824385613091        0.02484595132523
5
 energy: -0.625431954824 gnorm: 0.042498204094 xtb: 6.6.1 (8d0f1dd)
C           -6.55607656144921        1.22815964860339       -0.01701100471737
H           -5.86529775394315        1.39349018613788        0.82523496990280
H           -5.91909237721920        1.48776153800402       -0.82485374526484
H           -6.75300694243852        0.12613715556190       -0.12886752364281
H           -7.43208945342371        1.94171031857448       -0.00043929279086
5
 energy: -0.617392382726 gnorm: 0.104392114452 xtb: 6.6.1 (8d0f1dd)
C           -6.55662762595736        1.21336398212107       -0.00204542447791
H           -5.93668167155487        1.37610584416470        0.77333933412119
H           -5.93735532627024        1.47102145874479       -0.80435258612741
H           -6.72696560879368        0.21712325100409       -0.11309526730953
H           -7.36682924783798        1.92927535501061       -0.02975398044159
5
 energy: -0.621465567027 gnorm: 0.081065320885 xtb: 6.6.1 (8d0f1dd)
C           -6.57715992700723        1.21543433061042        0.00633678177132
H           -5.90676502996439        1.37452899358528        0.84652966290911
H           -5.87562563756410        1.47427664440301       -0.88724324819871
H           -6.72410155158655        0.14963699927234       -0.11061918675348
H           -7.39968762400939        1.98886666943193       -0.04769884409393
5
 energy: -0.618996009423 gnorm: 0.084077015874 xtb: 6.6.1 (8d0f1dd)
C           -6.58506438007246        1.23646679670396       -0.00323394762275
H           -5.88653742493520        1.37826674149929        0.89076946303978
H           -5.87952197424475        1.45521632580950       -0.87490083561221
H           -6.73373196665796        0.09139076231613       -0.11203668009649
H           -7.38265390273643        1.99928162817385       -0.07412568768747
5
 energy: -0.618438033781 gnorm: 0.091833061880 xtb: 6.6.1 (8d0f1dd)
C           -6.56517729691327        1.23767657004213       -0.01894065642251
H           -5.94629149514406        1.36043051400144        0.84379510982616
H           -5.95616728861062        1.41955913968836       -0.78708068802928
H           -6.71534088805692        0.16639877721967       -0.09472797244670
H           -7.32436022267435        1.97413445987338       -0.08511790689353
5
 energy: -0.621507287802 gnorm: 0.070253387825 xtb: 6.6.1 (8d0f1dd)
C           -6.55895757366371        1.22456962606154       -0.01913987849098
H           -5.93918998216172        1.36587838942777        0.88588334886161
H           -5.94957693866658        1.41951467726910       -0.81336314902823
H           -6.72142882708003        0.15172419451439       -0.09411108760314
H           -7.35064000990800        2.02276164022332       -0.10094236886117
5
 energy: -0.616160085492 gnorm: 0.081007451055 xtb: 6.6.1 (8d0f1dd)
C           -6.56577802077902        1.22092388153551        0.00049516479039
H           -5.92436899481612        1.36563886542730        0.91480639143803
H           -5.88246397377598        1.42502008628747       -0.89242767411301
H           -6.72866782507440        0.11054152761334       -0.09136700972422
H           -7.40485531689435        2.06962544077172       -0.11250279404111
5
 energy: -0.620283408265 gnorm: 0.081915630674 xtb: 6.6.1 (8d0f1dd)
C           -6.57355736360438        1.23786654718982        0.01491827025105
H           -5.97480034865336        1.35273835504722        0.84935464716597
H           -5.91498046915554        1.41021820756150       -0.87985438027564
H           -6.70529384888344        0.15539087623006       -0.08209535904571
H           -7.32192253583076        2.00160501060711       -0.11220402192137
5
 energy: -0.617731123245 gnorm: 0.100715297530 xtb: 6.6.1 (8d0f1dd)
C           -6.57462407098687        1.24767643111857        0.00941461827907
H           -5.97483955424149        1.35106789076014        0.84426664629228
H           -5.94104488538052        1.40152610282747       -0.86975315137616
H           -6.69882669957494        0.17192124418964       -0.07304605931872
H           -7.29908307816275        1.96598123039917       -0.10974082209392
5
 energy: -0.618617997692 gnorm: 0.069219103308 xtb: 6.6.1 (8d0f1dd)
C           -6.55914344085157        1.24112902548303       -0.00965323472166
H           -5.90198512796388        1.38057157006610        0.93048859280704
H           -5.93143491249532        1.40816791346823       -0.88712616503658
H           -6.73015718155415        0.09499252260351       -0.07384083177490
H           -7.39670043537652        2.02642425201821       -0.12054024584913
5
 energy: -0.620398931113 gnorm: 0.075367273131 xtb: 6.6.1 (8d0f1dd)
C           -6.54555612618820        1.22746573526281       -0.01611036851845
H           -5.91390221751752        1.38460343598640        0.90117686756405
H           -5.96324140356014        1.40342706203246       -0.85998793008245
H           -6.71240002779049        0.14382236532628       -0.05811054655159
H           -7.41153242052469        2.01932993740096       -0.11470830860753
5
 energy: -0.618442919372 gnorm: 0.091879125340 xtb: 6.6.1 (8d0f1dd)
C           -6.55390993489799        1.22573578041583        0.00427544966827
H           -5.94962390393484        1.37996699403372        0.82047573085728
H           -5.97840012502299        1.40985522202374       -0.86008345512028
H           -6.69349764316203        0.22095419947197       -0.04676849370424
H           -7.35447054972990        1.94560089291316       -0.10646586929682
5
 energy: -0.621043001505 gnorm: 0.090104658893 xtb: 6.6.1 (8d0f1dd)
C           -6.56899415516922        1.24175348594990        0.01976499235875
H           -5.89825174245174        1.39737230654502        0.85036289768166
H           -5.92569338068513        1.43041080029143       -0.94883607609920
H           -6.70742956970687        0.14313900916309       -0.04172427581829
H           -7.39932438252220        1.93735908471960       -0.09915483464501
5
 energy: -0.620427929206 gnorm: 0.082521588817 xtb: 6.6.1 (8d0f1dd)
C           -6.56800115047156        1.24948292616801        0.00850855438256
H           -5.85362379685970        1.42292243562649        0.86336410243342
H           -5.94941569391808        1.43230637117951       -0.94072977191996
H           -6.70375985503868        0.09730348657732       -0.03705841503167
H           -7.42688140884225        1.93253984105719       -0.09112867843594
5
 energy: -0.619862197957 gnorm: 0.098548992989 xtb: 6.6.1 (8d0f1dd)
C           -6.54654098638642        1.23710936293529       -0.01471063018168
H           -5.86845825264423        1.42705229264154        0.79866678115404
H           -6.02829913428468        1.42330145641940       -0.83402202834740
H           -6.68414081252802        0.18256574324333       -0.02183459494140
H           -7.41722064600108        1.88930654216879       -0.07864304741578
5
 energy: -0.623073362368 gnorm: 0.073605502149 xtb: 6.6.1 (8d0f1dd)
C           -6.54472567695253        1.22905914611595       -0.01018997323835
H           -5.82545465243724        1.44938042207027        0.80003306847679
H           -6.01722097489248        1.44440611137793       -0.85280105900016
H           -6.69295819542347        0.16833683071200       -0.01798761166687
H           -7.46793582325165        1.88427492735157       -0.07865139152052
5
 energy: -0.619357802643 gnorm: 0.078853141857 xtb: 6.6.1 (8d0f1dd)
C           -6.56164658186203        1.22932848288437        0.01676253798150
H           -5.78575343232004        1.46303287449628        0.79650053187211
H           -5.96126792105990        1.47227584347735       -0.95070478647462
H           -6.68627717682218        0.12512057163550       -0.01107171201698
H           -7.51946298578845        1.88516026870423       -0.06506090061709
5
 energy: -0.620665588361 gnorm: 0.091989285614 xtb: 6.6.1 (8d0f1dd)
C           -6.57324484381435        1.23690397835368        0.02918704483578
H           -5.80390290150922        1.45421952915463        0.72425464767656
H           -5.99542945624212        1.47906282698498       -0.92593964653584
H           -6.66724939730968        0.17424152733292       -0.00993209667518
H           -7.45135384562746        1.81531885599243       -0.05602663933076
5
 energy: -0.620758499329 gnorm: 0.090932802941 xtb: 6.6.1 (8d0f1dd)
C           -6.57180122433979        1.23881032263701        0.02017279925338
H           -5.78562164001468        1.45735888616267        0.71210211169539
H           -6.02537374747093        1.48840903974703       -0.90612850375574
H           -6.66665920593625        0.18608612963786       -0.00603450079689
H           -7.44461574032890        1.78526453448702       -0.04051591125098
5
 energy: -0.616456520799 gnorm: 0.083572534379 xtb: 6.6.1 (8d0f1dd)
C           -6.55527615140133        1.23990542707722       -0.00355571765799
H           -5.70140712661352        1.49406305251215        0.76884542324685
H           -6.04210027740775        1.49372677672452       -0.89582362298776
H           -6.67720853952161        0.08982283957825       -0.01796634450389
H           -7.55117396190590        1.83621766866611       -0.02438302238316
5
 energy: -0.620603016738 gnorm: 0.069453007572 xtb: 6.6.1 (8d0f1dd)
C           -6.54159177124342        1.23293799871384        0.00253805643247
H           -5.72947295987766        1.47462696201578        0.70753335647503
H           -6.05861347093225        1.50454360491728       -0.87309215149013
H           -6.66852861248546        0.13933227699833       -0.01659206801279
H           -7.55636473116137        1.81624847904329       -0.00547438140873
5
 energy: -0.616405248878 gnorm: 0.098527106029 xtb: 6.6.1 (8d0f1dd)
C           -6.55196519386032        1.22725349497998        0.03105641790050
H           -5.76541281830287        1.44973209265926        0.64119284200892
H           -6.05936041229721        1.52830985631531       -0.88493947749478
H           -6.66350893074403        0.21276595587732       -0.02743447438394
H           -7.49354950325496        1.76101218639029       -0.00207576154016
5
 energy: -0.616033732643 gnorm: 0.106685557687 xtb: 6.6.1 (8d0f1dd)
C           -6.57397243099693        1.22875626171630        0.04116344735352
H           -5.69738885638576        1.46032326189854        0.69062772374038
H           -6.02785930644586        1.56276783665166       -0.97969511627063
H           -6.66775500342887        0.15206137327308       -0.04364244027514
H           -7.52274772005446        1.77215528582161        0.02910474602203
5
 energy: -0.620403551811 gnorm: 0.068896756506 xtb: 6.6.1 (8d0f1dd)
C           -6.56717977053341        1.23348731082139        0.02159157774756
H           -5.66178835736529        1.45634019908012        0.70747867675249
H           -6.06835615773692        1.56853922778881       -0.93691748653782
H           -6.66995207798779        0.13153362542751       -0.06605790068011
H           -7.53605050594636        1.77668886001565        0.05065976290866
5
 energy: -0.615200134374 gnorm: 0.127015872348 xtb: 6.6.1 (8d0f1dd)
C           -6.53540210889384        1.23786069410839       -0.00325564038502
H           -5.71920539255184        1.43007012258811        0.66398967247494
H           -6.13523104752146        1.54800699070157       -0.82888681156480
H           -6.67210962660761        0.18623330679199       -0.08229179201427
H           -7.50501930772356        1.75565960431800        0.07696032725738
5
 energy: -0.620690037064 gnorm: 0.086232196701 xtb: 6.6.1 (8d0f1dd)