173
 energy: -30.209367328783 gnorm: 0.000782495766 xtb: 6.6.0 (8843059)
C           -0.96702069209242        1.36099751792826       -0.21675782672219
C            0.42643516574961        1.45514765250806       -0.20609068453567
C            1.20412525295580        0.31039008005350       -0.02962061347692
C            0.59191976961509       -0.93641695173454        0.10595573195861
C           -0.80154594576938       -1.03427995704744        0.10025435878311
C           -1.57820048502440        0.12329265009582       -0.00228572678911
C            1.11821421577595        2.75786178993793       -0.48125116478233
H            1.79633612123985        3.00426530890627        0.34158149835527
H            0.41071030626484        3.58884495131135       -0.52016850499354
N            1.89184801033657        2.72253224283253       -1.73093209444980
C            1.96676971611496        3.96865726914452       -2.49350097782681
H            2.31511641277822        4.75605291474005       -1.81826871603856
H            2.73889818000929        3.86691134649850       -3.26322473492338
C           -6.52320345317702        1.77358983351558       -3.25249269031259
C           -6.46762123673521        1.66625888173643       -1.88217718171550
N           -5.47580430896585        1.03170793919875       -1.28348105156745
C           -4.55504113585532        0.50714238302827       -2.09301259144042
N           -4.52989676684405        0.54751428362011       -3.42873087971960
C           -5.52485924690136        1.19867418634215       -4.00373908308327
H           -7.33512738724463        2.29421374318736       -3.72788332802391
C           -1.63984762442496        5.12501645879526       -4.47776448258568
C           -0.75542288886516        6.08599581936659       -4.03280680265492
C            0.39953366643594        5.71604785487156       -3.37370544027445
C            0.67630351007757        4.37959432384286       -3.13152505874717
C           -0.23333876487682        3.43165145980449       -3.56497728132426
C           -1.38103673279648        3.78323478620167       -4.25347949095698
H           -2.53084508224561        5.41000376934647       -5.01074998561658
H           -0.96000183709191        7.12871204273255       -4.21364027790794
H            1.10174744670218        6.46537976653230       -3.04991930111837
H           -0.04275502178127        2.39187062589869       -3.37975874613774
C           -2.27185152976790        2.70632698028638       -4.78228611258064
H           -3.00660840248340        3.12277021186316       -5.47809316490525
H           -2.83625768825705        2.26974995604344       -3.95101580844782
N           -1.49417947881071        1.66141301150365       -5.46226881203495
C           -0.85733940413413        2.03888244814381       -6.71839317966390
H           -1.62194679698271        2.24841580486796       -7.47245822514501
H           -0.34290103269278        2.99199089407470       -6.57497715174630
C            1.87133645755400       -0.99018013488102       -8.06230099158370
C            2.34393808527349        0.09077320291789       -7.31523961690805
C            0.10074110039164        0.99227797504834       -7.20613655250364
C           -0.37421937879382       -0.09239904652142       -7.94507805902909
C            0.51673982586954       -1.07005813823161       -8.38969862283259
C           -5.57203186995160        1.28614961315343       -5.48778602166582
H           -5.67971583670661        2.32115209418955       -5.81572019494897
H           -4.65649987341754        0.88823358153105       -5.92647156320149
H           -6.41071071055856        0.71206855287687       -5.88401312419010
C           -7.53595940544046        2.27955376761457       -1.04968272546170
H           -8.51203544045726        1.86034773760585       -1.29675797240380
H           -7.34674995265128        2.09404352055556        0.00784868460253
H           -7.57747225381328        3.35881531636696       -1.20160077517714
N            3.90401410743462       -0.60319732775976       -5.59472306039373
H            3.32917249621386       -1.45934856199856       -5.66674129396602
C            5.21992377710610       -1.02262942297822       -5.10273952618715
H            5.88876070679193       -1.22106491240264       -5.94621108815287
H            5.66556964214084       -0.20495584885014       -4.52862448549336
C            1.50080553433157       -6.94705828601452       -8.73858113331647
C            1.61132756345703       -5.98779741164994       -9.71748232988767
N            1.00332150825855       -4.82095365114609       -9.60394472612858
C            0.27132735387688       -4.65006812862696       -8.50105707289928
N            0.08080896580911       -5.53227165674305       -7.51583910485422
C            0.72203024395459       -6.68000468611975       -7.63721635461696
H            2.00924727657336       -7.88956320969446       -8.83497286520603
C            4.41724313900079       -4.54683343513132       -2.84336352672947
C            4.06579262676107       -3.30930181368060       -2.32787885869930
C            4.40523603962522       -2.17088025726913       -3.04037990805946
C            5.06778471244856       -2.24858436020962       -4.25564788502186
C            5.40526873965033       -3.49830836520648       -4.75148162572097
C            5.08901416750107       -4.63992545395135       -4.04460027180768
H            4.16082471252169       -5.43818309441187       -2.29657137493534
H            4.12237929243129       -1.20646276118617       -2.65790424045475
H            5.89063454917745       -3.57214915747221       -5.70989889975340
H            5.35268195177502       -5.60752780930113       -4.43973596477006
C            3.35614292269103       -3.19308777440818       -1.01619526453322
H            3.24772347513924       -4.18012474489638       -0.55653223980477
H            3.97956217319937       -2.61042280446570       -0.33017901802228
N            2.02084542623774       -2.58693752423200       -1.10055759510130
C            0.58194880340695       -7.70225518931994       -6.56612342738800
H            0.01943312795331       -7.29873446392242       -5.72386298083517
H            0.05230093615728       -8.58116413017739       -6.93472511174430
H            1.55806911810226       -8.02015609708728       -6.19784724792092
C            2.44707902361552       -6.24944542936435      -10.91856099854946
H            2.39610915615015       -5.40622207633783      -11.60774822400282
H            3.49167626579646       -6.39714438818748      -10.64196451740055
H            2.10295654387185       -7.13893233009563      -11.44747664435010
C            2.70571325178561        0.42770082983831        0.03710024704242
H            3.04110212456589        1.24730670431185       -0.60785707948507
H            3.16382529809638       -0.46007334864032       -0.41063518280969
C            3.21985632963191        0.63536169021880        1.45398412048141
H            2.92669983533698       -0.18680146496862        2.10856461972115
H            4.30891283049793        0.71175131884952        1.48835000271703
H            2.81194211351142        1.54749175393208        1.89247486416461
C           -1.81734921719825        2.57346302079381       -0.50064803334942
H           -1.33394219030427        3.19328613696766       -1.26350161707517
H           -2.74814977212004        2.26292013131004       -0.99014134352659
C           -2.12090906868782        3.39080672046672        0.74456363484325
H           -2.65166792339780        2.79393618189900        1.48821718139642
H           -1.20425501982384        3.74595943861643        1.21848897505115
H           -2.73746986502544        4.26438117098363        0.52151143518026
C           -1.46716829299827       -2.38341373822036        0.17296155247049
H           -2.39522210137883       -2.36433724843739       -0.41117276601717
H           -0.85187944431272       -3.12496223353921       -0.35111520086692
C           -1.74560452539299       -2.82882323247586        1.60043727424968
H           -2.22701371272795       -3.80850234222618        1.63842044878683
H           -0.82495102364556       -2.89090971307264        2.18307031932517
H           -2.39741099919396       -2.12112243829676        2.11547174283406
C            3.77602529697017        0.11483372011874       -6.85990269740034
N           -0.29683225062301       -3.38743951478787       -8.28832418755544
C            0.00565060314978       -2.25760829835349       -9.15001207164099
H            4.14035755934171        1.13666859675421       -6.73081854393862
H            4.43242325303711       -0.32954367524526       -7.61318085038965
H            0.73219878586847       -2.57477696533569       -9.90278537239238
H           -0.89075003108876       -2.00893719488535       -9.72323883429178
C            1.45236383341019        1.06177784546198       -6.85656289912888
C            1.94714629950782        2.16347273097409       -5.95883124489118
H            2.74467646632151        1.77770928495656       -5.31205553731691
H            1.15335813636315        2.43016502550326       -5.25530758073880
C            2.41971136642096        3.39407240132558       -6.71820548135059
H            2.76406933747830        4.18295033142542       -6.04579944675291
H            3.24283537401742        3.15275194734332       -7.39255631453593
H            1.62146304957023        3.81277697430799       -7.33300226441946
C           -1.83849680399137       -0.20469985879847       -8.28268357086357
H           -2.43997652355425        0.24979123084219       -7.48890096355821
H           -2.13619551669739       -1.26011869288814       -8.25591529305610
C           -2.18839549527409        0.42293429344693       -9.62427795287010
H           -1.94686914684706        1.48703251589858       -9.63838796223737
H           -1.62678964039358       -0.03649761728315      -10.43905218425199
H           -3.25042399497580        0.32334738749766       -9.85923150950254
C            2.81548575479996       -2.07449723012202       -8.51316433542883
H            3.59134014349521       -2.22827367867730       -7.75466343728414
H            2.28195132353877       -3.03159093722859       -8.53579499772774
C            3.44745298079405       -1.78929366914042       -9.86681512729006
H            4.12068892235637       -2.58990790630273      -10.18123872890627
H            2.68893243016521       -1.67491496066897      -10.64273421383829
H            4.02250499863800       -0.86203323284066       -9.84861814491512
H           -2.03008274516554        0.78731334216325       -5.57861960752751
N           -3.44766760982178       -0.11885442850704       -1.50656705010263
C            1.45515158158942       -2.16155983656938        0.19398460546673
H            0.91044647833912       -3.00495426628380        0.62505082110765
H            2.26861116499600       -1.97784681239598        0.90213579244021
H           -0.41385214528331       -3.13747043012590       -7.29825354354648
H           -2.59944846250265       -0.06623283502554       -2.08125568706554
C           -3.07258615026963        0.02023540048164       -0.11175834166718
H           -3.56613356392021        0.89800235485729        0.31435793729149
H           -3.46240800179445       -0.83002581888549        0.45321188692094
H            1.60068279475782        1.92831767925499       -2.30952412360874
H            1.98382009199131       -1.83465508004288       -1.80720274656459
C            0.89277084183543       -2.65563173671009       -4.57609435630717
C            0.61304082737203       -1.18581087415851       -4.17824050340785
C           -0.60684684546610       -1.14032449644305       -3.24000332907785
C           -1.81812149758339       -1.91710389395417       -3.83239932766320
C           -1.38248769599933       -3.30882780018992       -4.37545811318717
O           -0.25176806359154       -3.20306549428110       -5.23788009769127
O            1.72019352290749       -0.56510918599009       -3.54824120297210
O           -0.93953839671976        0.19344490510202       -2.96755578208168
O           -2.48826193904585       -1.14666020742794       -4.81818346391107
C           -2.51338511856664       -4.00437312884345       -5.12213468951020
O           -2.16405535230267       -5.30860827553935       -5.50361412969442
H            2.47410739311078       -0.56138986784406       -4.19057127756394
H           -1.10649279713115        0.66629919180861       -3.82130002097490
H           -1.41564398503683       -5.31202944567789       -6.15835932884596
H            0.37527544373995       -0.61604820947981       -5.08732427567728
H           -0.30449576254406       -1.57532615515608       -2.27844864254891
H           -2.54691831861593       -2.09997394599056       -3.02486891709586
H           -1.06830957313965       -3.95273096530597       -3.54045879161022
H           -3.17069610795567       -0.56945341002843       -4.37378200166146
H           -3.40942309533039       -4.07245704006452       -4.49535921284536
H           -2.78252682307503       -3.42445074783090       -6.01243221657475
O            2.08019717210067       -2.81910390728798       -5.32468107260637
H            1.03617564207647       -3.23470723943607       -3.65407344471407
C            2.17256085318481       -4.13175049693148       -5.77651346786458
H            2.23118203230857       -4.81405627236023       -4.92716637291603
H            1.27377831534100       -4.33363277050221       -6.35638653640861
H            3.05786909958583       -4.24317674785901       -6.40363282939469
