173
input_6 ** Energy = -3529.65147926 Eh **
C      -0.826252      1.716364      -0.227116
C      0.562544      1.837923      -0.098625
C      1.345128      0.711497      0.189563
C      0.742386      -0.547406      0.301775
C      -0.640833      -0.683902      0.12948
C      -1.422829      0.457026      -0.083685
C      1.252516      3.148825      -0.37208
H      1.933212      3.398422      0.446313
H      0.527754      3.959597      -0.408426
N      2.025875      3.085113      -1.62177
C      2.020855      4.29662      -2.407316
H      2.327215      5.12571      -1.767278
H      2.80869      4.206199      -3.161785
C      -6.769652      0.051032      -3.466319
C      -6.63657      0.135768      -2.08023
N      -5.444633      0.20648      -1.494325
C      -4.366031      0.189542      -2.303647
N      -4.405668      0.076992      -3.654673
C      -5.611603      0.01231      -4.226417
H      -7.743141      -0.002241      -3.931382
C      -1.466288      5.308945      -4.716338
C      -0.633372      6.312412      -4.238531
C      0.469583      5.99192      -3.462909
C      0.740544      4.665896      -3.133187
C      -0.130139      3.681693      -3.578907
C      -1.220081      3.980897      -4.39147
H      -2.305537      5.56022      -5.353561
H      -0.836569      7.345614      -4.488196
H      1.132414      6.777051      -3.117698
H      0.043776      2.651639      -3.304436
C      -2.078549      2.869893      -4.932725
H      -2.773434      3.282226      -5.677142
H      -2.689513      2.439021      -4.137675
N      -1.261198      1.786179      -5.479277
C      -0.538742      2.159576      -6.699682
H      -1.234994      2.412985      -7.50663
H      0.000867      3.075826      -6.488024
C      2.160356      -0.965879      -7.925143
C      2.617705      0.078495      -7.112577
C      0.408902      1.074768      -7.141037
C      -0.060758      0.022477      -7.938068
C      0.819273      -0.994188      -8.327857
C      -5.638177      -0.1135      -5.714444
H      -6.653882      -0.175566      -6.09431
H      -5.146781      0.742793      -6.176003
H      -5.090199      -1.000325      -6.030093
C      -7.836492      0.144453      -1.189987
H      -8.395448      -0.786631      -1.286636
H      -7.534455      0.265184      -0.154985
H      -8.51588      0.952862      -1.459455
N      4.03371      -0.809827      -5.369771
H      3.586194      -1.695125      -5.587193
C      5.353747      -1.080532      -4.794132
H      6.090776      -1.333358      -5.568679
H      5.709926      -0.175219      -4.298009
C      -0.318725      -7.056208      -9.592724
C      -0.020925      -6.012613      -10.459939
N      0.061497      -4.751925      -10.03446
C      -0.156409      -4.536343      -8.724875
N      -0.478557      -5.487351      -7.816578
C      -0.553676      -6.743613      -8.257723
H      -0.381361      -8.075698      -9.943201
C      4.647833      -4.377463      -2.163704
C      4.246239      -3.100501      -1.783378
C      4.563729      -2.030838      -2.613975
C      5.220299      -2.218335      -3.824721
C      5.623313      -3.50241      -4.177377
C      5.351388      -4.575401      -3.342573
H      4.410961      -5.222027      -1.528746
H      4.265451      -1.029838      -2.330051
H      6.142151      -3.662313      -5.115009
H      5.667645      -5.571717      -3.622192
C      3.505269      -2.866019      -0.499188
H      3.394246      -3.812395      0.034268
H      4.131796      -2.229071      0.151707
N      2.187273      -2.277921      -0.698746
C      -0.908129      -7.78982      -7.253661
H      -0.208407      -7.765567      -6.419556
H      -1.894223      -7.593192      -6.835494
H      -0.901521      -8.783922      -7.691874
C      0.210395      -6.239166      -11.917724
H      1.137552      -5.76179      -12.229735
H      0.252632      -7.297057      -12.163297
H      -0.591054      -5.780757      -12.497015
C      2.827851      0.869717      0.423237
H      3.212898      1.678514      -0.19055
H      3.358729      -0.019988      0.093662
C      3.153962      1.138049      1.891026
H      2.810828      0.327975      2.533402
H      4.228207      1.250711      2.037685
H      2.671421      2.05017      2.23923
C      -1.685176      2.92325      -0.50825
H      -1.179496      3.592447      -1.197515
H      -2.589117      2.627752      -1.032663
C      -2.058388      3.685282      0.759333
H      -2.607512      3.050382      1.453923
H      -1.170762      4.039941      1.281808
H      -2.681027      4.549492      0.528162
C      -1.274228      -2.052273      0.164348
H      -2.112976      -2.08698      -0.529161
H      -0.565412      -2.7876      -0.210653
C      -1.750027      -2.463617      1.554287
H      -2.202225      -3.455183      1.537454
H      -0.922698      -2.483605      2.262252
H      -2.48814      -1.764324      1.944719
C      4.023497      0.028818      -6.569313
N      -0.040161      -3.273371      -8.273294
C      0.319348      -2.160458      -9.137955
H      4.384581      1.018445      -6.304104
H      4.72046      -0.345642      -7.327525
H      1.070408      -2.501871      -9.842385
H      -0.532612      -1.880992      -9.753814
C      1.73811      1.085433      -6.695689
C      2.211025      2.166071      -5.760334
H      2.951416      1.762507      -5.074426
H      1.389772      2.478776      -5.125489
C      2.78181      3.383089      -6.480663
H      3.084447      4.150763      -5.769034
H      3.650187      3.120019      -7.083916
H      2.048834      3.826838      -7.152861
C      -1.498854      -0.01017      -8.39326
H      -2.13854      0.483778      -7.667184
H      -1.856625      -1.036856      -8.415165
C      -1.70191      0.642671      -9.757987
H      -1.394823      1.687557      -9.742905
H      -1.113136      0.147793      -10.528495
H      -2.748691      0.603322      -10.059098
C      3.101931      -2.047378      -8.392436
H      3.878408      -2.226279      -7.652694
H      2.570717      -2.991753      -8.472341
C      3.761605      -1.710407      -9.72724
H      4.433199      -2.508381      -10.043342
H      3.020307      -1.567951      -10.511754
H      4.339795      -0.789866      -9.6592
H      -1.840359      0.974521      -5.665359
N      -3.154447      0.285709      -1.741602
C      1.615533      -1.750592      0.543621
H      1.059867      -2.542148      1.044682
H      2.41069      -1.476526      1.245868
H      -0.131063      -3.121785      -7.276454
H      -2.335699      0.319935      -2.352159
C      -2.90742      0.3284      -0.308981
H      -3.45074      1.158942      0.137343
H      -3.314393      -0.563291      0.160063
H      1.730576      2.288001      -2.168668
H      2.213201      -1.562314      -1.415576
C      0.97509      -2.758543      -4.554388
C      0.809022      -1.267292      -4.282272
C      -0.443072      -1.084002      -3.432879
C      -1.683524      -1.80664      -3.989706
C      -1.335464      -3.220976      -4.420055
O      -0.17387      -3.225519      -5.24983
O      1.884409      -0.699503      -3.568696
O      -0.713981      0.28573      -3.202631
O      -2.287543      -1.07095      -5.045972
C      -2.436189      -3.926832      -5.185454
O      -2.119339      -5.271053      -5.465202
H      2.666984      -0.649048      -4.172284
H      -0.7486      0.758177      -4.073982
H      -1.455897      -5.271445      -6.189798
H      0.671757      -0.776702      -5.248825
H      -0.221513      -1.511499      -2.453561
H      -2.402398      -1.893146      -3.169324
H      -1.114507      -3.806699      -3.517792
H      -3.042357      -0.591458      -4.621305
H      -3.339816      -3.916857      -4.573439
H      -2.653936      -3.36172      -6.095176
O      2.079739      -3.00694      -5.361216
H      1.071662      -3.307407      -3.605121
C      2.380873      -4.396043      -5.491665
H      2.528259      -4.848711      -4.509824
H      1.590525      -4.91961      -6.026307
H      3.309153      -4.460979      -6.050428
