90
 ** Energy = -119.194062 Eh ** Charge = 0 ** Spin = 0 ** Curcuma 0.1 (0.0.154)
C  1.491951    -2.021991    -0.133083
C  1.153971    -1.498813    1.119307
C  -0.162963    -1.617495    1.577769
C  -1.144420    -2.201482    0.771343
C  -0.829134    -2.561061    -0.543153
C  0.495290    -2.505105    -0.986413
C  0.866985    -3.043726    -2.350672
C  1.202445    -4.535169    -2.251284
H  1.478346    -4.928869    -3.227381
H  0.343984    -5.092067    -1.882305
H  2.027845    -4.703646    -1.563518
H  1.717061    -2.502961    -2.765043
H  0.049379    -2.925700    -3.058692
C  -1.934082    -2.858509    -1.540243
N  -2.145076    -1.711718    -2.407692
C  -2.809265    -0.592016    -1.979655
N  -3.617105    -0.702010    -0.930802
C  -4.313525    0.360037    -0.540137
C  -4.246428    1.575066    -1.200294
C  -3.409971    1.706936    -2.307134
C  -2.675825    0.605315    -2.697118
H  -2.009677    0.652441    -3.547647
C  -3.310131    3.013589    -3.031562
H  -4.301569    3.372786    -3.302982
H  -2.850173    3.760061    -2.385368
H  -2.710932    2.917664    -3.934080
H  -4.833404    2.412671    -0.857655
C  -5.165881    0.191337    0.678867
H  -6.086243    0.763033    0.587669
H  -4.615615    0.561240    1.544431
H  -5.399684    -0.857679    0.835265
H  -1.395270    -1.513060    -3.054046
H  -1.698106    -3.721137    -2.166725
H  -2.882398    -3.045372    -1.047500
C  -2.513497    -2.509956    1.318847
C  -2.657827    -4.016472    1.553945
H  -3.648387    -4.242121    1.943042
H  -2.511301    -4.579753    0.635712
H  -1.918911    -4.359249    2.276784
H  -3.272574    -2.146435    0.627314
H  -2.682883    -1.996798    2.258832
C  -0.578687    -1.047168    2.919061
N  -1.648616    -0.077091    2.795269
C  -1.669603    1.041186    2.012553
N  -2.676884    1.871059    2.304662
C  -2.823139    2.982292    1.597882
C  -1.968246    3.324289    0.561301
C  -0.922344    2.465526    0.236111
C  -0.768810    1.308590    0.978131
H  0.031484    0.629435    0.747014
C  0.001669    2.764791    -0.903201
H  0.099125    3.838396    -1.050954
H  -0.407023    2.333684    -1.817699
H  0.987912    2.334772    -0.739649
H  -2.115841    4.246348    0.018809
C  -3.963182    3.875016    1.989606
H  -3.583110    4.779172    2.464207
H  -4.610502    3.357183    2.691185
H  -4.537347    4.169818    1.113767
H  -2.302101    -0.019575    3.561418
H  0.274766    -0.601761    3.439408
H  -0.947603    -1.858876    3.553836
C  2.213656    -0.830645    1.965082
C  2.832123    -1.810440    2.964432
H  2.074933    -2.201065    3.640469
H  3.601844    -1.315198    3.552730
H  3.282705    -2.654401    2.446035
H  1.788725    0.018196    2.502601
H  2.997303    -0.412253    1.336236
C  2.919137    -1.923355    -0.631341
N  3.103057    -0.655464    -1.322935
C  3.894628    0.365085    -0.873777
N  3.464513    1.587327    -1.190916
C  4.200586    2.638237    -0.854104
C  5.398279    2.515119    -0.166563
C  5.865156    1.244875    0.166822
C  5.104024    0.151116    -0.198832
H  5.445986    -0.849717    0.015825
C  7.166056    1.081937    0.890435
H  7.148200    1.636298    1.827913
H  7.982387    1.476916    0.286785
H  7.366399    0.035024    1.105127
H  5.966502    3.392987    0.100831
C  3.654879    3.982103    -1.231611
H  2.920523    3.870572    -2.023875
H  3.166761    4.436873    -0.369818
H  4.453661    4.643010    -1.559824
H  2.262581    -0.305175    -1.764701
H  3.624819    -1.994424    0.193880
H  3.153659    -2.742431    -1.316562
