231
 ** Energy =   3.038297 Eh ** Charge = 0 ** Spin = 0 ** Curcuma 0.1 (0.0.108)
C  2.480753    -0.361948    -1.388274
C  2.180254    -1.654558    -0.918970
C  1.154786    -1.826515    0.017811
C  0.395266    -0.732322    0.456202
C  0.669704    0.545191    -0.035508
C  1.694912    0.730888    -0.980071
C  1.927586    2.167243    -1.628085
C  2.816431    3.006351    -0.715660
C  -0.832321    -0.959396    1.510722
C  -0.289715    -0.916852    2.931667
C  2.966664    -2.937305    -1.497523
C  4.148550    -3.265895    -0.587994
C  -0.200060    1.771805    0.502896
N  -1.519660    1.729521    -0.151705
C  0.797712    -3.261578    0.573755
N  -0.365128    -3.727309    -0.172007
C  3.703505    -0.137027    -2.392510
C  -2.337722    2.786462    0.329168
N  -3.353440    3.127854    -0.379077
C  -4.525748    3.005487    0.138649
C  -4.629692    2.916811    1.459403
C  -3.515685    2.947981    2.187388
N  -2.381902    3.039277    1.586559
C  -3.561515    2.846440    3.667803
C  -5.731070    2.936859    -0.724363
N  3.190071    -0.185113    -3.760498
C  -0.763143    -5.027694    0.313488
C  -2.166174    -5.241306    -0.149062
C  -2.422783    -5.650968    -1.387155
C  -3.683893    -5.775782    -1.799794
C  -4.683299    -5.486867    -0.962145
C  -4.410859    -5.062847    0.271384
C  -3.163292    -4.943990    0.666142
C  4.314354    -0.157057    -4.697319
C  3.749105    -0.267193    -6.096690
C  3.677811    0.795074    -6.882207
C  3.129852    0.699103    -8.097941
C  2.655009    -0.472780    -8.521205
C  2.736700    -1.538707    -7.736827
C  3.285928    -1.429460    -6.530031
C  -5.499257    -4.659368    1.224823
C  3.042846    1.932175    -8.970925
C  2.159506    -2.860968    -8.159913
N  0.837514    -2.966169    -7.547772
C  -0.157866    -3.377118    -8.539981
C  -1.590504    -3.250477    -7.837523
C  -3.972809    -6.167532    -3.227258
N  -3.437107    -5.121747    -4.092914
C  -3.853152    -5.386767    -5.484442
C  -3.317284    -4.190020    -6.401067
C  -2.381060    -2.106779    -8.036437
C  -3.645019    -2.014833    -7.437481
C  -4.111649    -3.043964    -6.602804
C  -2.048061    -4.278702    -6.999597
C  -1.091865    -5.527576    -6.674997
C  -1.333562    -6.650628    -7.687019
C  -5.537460    -2.884877    -5.855514
C  -6.637418    -3.358639    -6.790891
C  -4.537619    -0.726741    -7.706385
N  -4.093452    0.331339    -6.792926
C  -4.917731    1.483804    -6.952916
C  -1.815924    -0.871865    -8.903789
C  -2.177709    -1.065373    -10.371114
N  -5.546432    1.707020    -8.058446
C  -5.913214    2.905903    -8.354057
C  -5.778211    3.866369    -7.456768
C  -5.287800    3.565187    -6.269323
N  -4.980873    2.347097    -6.001564
C  -5.087896    4.618319    -5.250251
C  -6.448777    3.203853    -9.699398
N  -5.497396    -3.161395    1.376757
N  2.547416    3.086142    -8.154924
C  -5.914877    -2.454226    0.063253
C  -6.421805    -2.789984    2.484241
C  -7.389362    -2.623621    -0.307708
O  -8.109486    -1.601129    -0.463036
O  -7.834424    -3.663997    -0.505649
C  -8.347842    -1.356756    -1.853593
C  -9.803830    -1.669467    -2.173534
C  -6.337950    -1.306766    2.762553
O  -7.310608    -0.708825    2.906400
O  -5.218137    -0.694403    2.735648
C  -4.398459    -0.992628    3.887536
C  -5.154175    -0.716457    5.186266
C  2.736038    4.392394    -8.894159
C  1.107386    2.888018    -7.688198
C  2.123030    4.443117    -10.270619
O  2.776066    3.993308    -11.259446
O  1.192782    5.094746    -10.447682
C  1.904131    3.557810    -12.292736
C  2.693718    2.745515    -13.281072
C  0.084674    2.776764    -8.776068
O  -0.057899    1.784256    -9.329426
O  -0.727008    3.736005    -8.946045
C  -1.832197    3.369836    -9.771735
C  -2.739332    4.564491    -9.889596
H  2.471826    2.083041    -2.693515
H  0.861150    2.729093    -1.761350
H  2.987095    2.372761    0.340080
H  3.897099    3.198451    -1.301536
H  2.228014    4.082929    -0.503504
H  -1.661828    -0.100396    1.438433
H  -1.350162    -2.039863    1.348711
H  0.950706    -0.874505    2.866368
H  -0.744334    0.100400    3.480824
H  -0.674760    -1.948598    3.514499
H  3.407182    -2.728731    -2.592080
H  2.229888    -3.898615    -1.543329
H  4.040515    -4.451481    -0.232519
H  5.187420    -3.093756    -1.250556
H  4.110102    -2.498319    0.392696
H  -0.319537    1.628970    1.702668
H  0.293092    2.826938    0.262195
H  -1.422382    1.849459    -1.155946
H  1.690176    -4.052097    0.453270
H  0.502187    -3.158052    1.738370
H  -0.100314    -3.824386    -1.173265
H  4.204818    0.946118    -2.198183
H  4.524615    -0.995201    -2.241367
H  -5.598546    2.816505    1.928452
H  -4.549080    2.164367    3.979616
H  -2.505125    2.297591    4.033116
H  -3.648937    3.999557    4.129450
H  -6.236600    1.811669    -0.567923
H  -6.514475    3.835480    -0.365178
H  -5.367506    3.102599    -1.901862
H  2.715401    -1.082808    -3.882152
H  -0.760624    -5.026995    1.516266
H  -0.038836    -5.868654    -0.148640
H  -1.608028    -5.854449    -2.068554
H  -5.710186    -5.559610    -1.289568
H  -2.961564    -4.574200    1.663565
H  5.024193    -1.111055    -4.503587
H  4.900395    0.885304    -4.573217
H  4.051550    1.745892    -6.535982
H  2.193836    -0.557260    -9.494663
H  3.335397    -2.293946    -5.884904
H  -6.551150    -5.074877    0.857103
H  -5.191584    -5.132466    2.302893
H  4.173420    2.182837    -9.317262
H  2.328667    1.713937    -9.904129
H  2.102371    -2.932277    -9.361019
H  2.852268    -3.726294    -7.687453
H  0.587318    -2.020872    -7.225667
H  0.056370    -4.532652    -8.848540
H  -0.097698    -2.680682    -9.501299
H  -5.166721    -6.235092    -3.379774
H  -3.419424    -7.205619    -3.473509
H  -3.861120    -4.226168    -3.792749
H  -3.375360    -6.433390    -5.833243
H  -5.055219    -5.449552    -5.551220
H  0.063283    -5.211528    -6.755871
H  -1.319657    -5.959768    -5.565861
H  -2.185738    -6.262901    -8.507982
H  -1.736623    -7.645273    -7.059578
H  -0.246763    -6.890914    -8.247462
H  -5.620324    -3.551219    -4.869319
H  -5.736783    -1.720952    -5.572853
H  -7.451581    -2.432248    -6.921557
H  -6.109600    -3.649738    -7.879736
H  -7.174054    -4.354447    -6.272217
H  -4.373656    -0.373039    -8.856077
H  -5.694026    -0.936070    -7.510732
H  -4.161551    0.016465    -5.803066
H  -2.305469    0.160974    -8.548488
H  -0.615828    -0.800887    -8.811863
H  -1.119225    -1.182088    -11.014080
H  -2.873022    -2.091800    -10.456638
H  -2.814543    -0.058728    -10.742582
H  -6.058549    4.886635    -7.696222
H  -4.789003    4.054289    -4.187363
H  -4.162676    5.353673    -5.642372
H  -6.152336    5.253750    -5.137728
H  -5.890546    4.233575    -10.112186
H  -6.191551    2.229256    -10.431139
H  -7.674307    3.371034    -9.592293
H  -5.756103    -1.268498    0.220165
H  -5.249784    -2.858621    -0.857956
H  -7.558567    -3.082826    2.210475
H  -6.049668    -3.354786    3.483166
H  -8.150358    -0.187757    -2.078365
H  -7.640230    -2.078431    -2.523202
H  -9.997471    -2.882499    -1.959178
H  -10.516937    -0.964845    -1.434124
H  -9.992879    -1.392006    -3.369424
H  -4.076693    -2.149332    3.865141
H  -3.443480    -0.256550    3.862502
H  -5.823885    -1.725223    5.469520
H  -4.301398    -0.491126    6.067426
H  -5.885334    0.275682    5.014485
H  2.251539    5.276958    -8.233816
H  3.924763    4.547814    -9.043764
H  1.045683    1.878388    -7.045433
H  0.805900    3.854753    -7.028690
H  1.049650    2.855946    -11.824350
H  1.460031    4.516524    -12.871010
H  2.820128    1.599881    -12.816652
H  2.060133    2.730417    -14.353052
H  3.797261    3.297838    -13.419913
H  -1.446366    3.093263    -10.877737
H  -2.458129    2.480341    -9.251505
H  -3.495910    4.382744    -10.858896
H  -3.377996    4.653525    -8.826960
H  -2.020477    5.562461    -10.065317
C  -2.401047    -0.639986    -3.127124
C  -1.625607    -1.718876    -3.831323
C  -0.192051    -1.293039    -4.013832
C  -0.128418    0.047208    -4.732020
C  -0.968288    1.039381    -3.960742
O  -2.311988    0.581038    -3.859446
O  -1.663443    -2.883597    -3.044278
O  0.500303    -2.268992    -4.750634
O  -0.576830    -0.083624    -6.068748
C  -0.941908    2.425268    -4.606496
O  -1.436874    3.372987    -3.677192
H  -1.282037    -3.664910    -3.557806
H  1.051466    -2.847620    -4.130387
H  -2.433922    3.257325    -3.559129
H  -2.089244    -1.927833    -4.811989
H  0.275555    -1.197799    -3.023761
H  0.902731    0.400621    -4.750378
H  -0.531982    1.116319    -2.979954
H  -1.548196    0.116589    -6.147198
H  0.191363    2.716286    -4.869542
H  -1.662745    2.431847    -5.569583
O  -3.761525    -1.043037    -3.049050
H  -1.985778    -0.515281    -2.100393
C  -4.560792    -0.029138    -2.452812
H  -4.727535    0.888564    -3.280726
H  -5.642847    -0.549220    -2.157187
H  -3.977783    0.385273    -1.436117
231
 ** Energy =   3.015478 Eh ** Charge = 0 ** Spin = 0 ** Curcuma 0.1 (0.0.108)
C  2.432448    -0.318173    -1.323302
C  2.141143    -1.629916    -0.909420
C  1.141501    -1.846305    0.046743
C  0.411720    -0.767607    0.562297
C  0.689500    0.533723    0.132635
C  1.677721    0.755863    -0.834951
C  1.917289    2.222221    -1.414437
C  2.946109    2.953858    -0.553732
C  -0.779628    -1.031147    1.633005
C  -0.209800    -0.997431    3.052771
C  2.913337    -2.893435    -1.559168
C  4.067701    -3.308064    -0.647306
C  -0.118805    1.746340    0.777278
N  -1.424003    1.859492    0.105736
C  0.804313    -3.308247    0.547430
N  -0.385449    -3.742403    -0.162677
C  3.625393    -0.053755    -2.335106
C  -2.185810    2.906608    0.715189
N  -3.139634    3.447740    0.042443
C  -4.320169    3.478464    0.561664
C  -4.452142    3.269866    1.864056
C  -3.361231    3.038203    2.584598
N  -2.218085    3.017633    1.995883
C  -3.451905    2.788605    4.044673
C  -5.513045    3.723940    -0.290940
N  3.098852    -0.080895    -3.699631
C  -0.700526    -5.101835    0.217851
C  -2.069719    -5.372145    -0.294090
C  -2.265328    -5.825447    -1.526149
C  -3.504192    -5.980925    -1.981362
C  -4.535977    -5.687164    -1.197890
C  -4.325381    -5.223204    0.025390
C  -3.100871    -5.069218    0.466959
C  4.228446    -0.051111    -4.628716
C  3.694955    -0.171397    -6.028961
C  3.665464    0.875920    -6.836684
C  3.169755    0.755956    -8.064288
C  2.699984    -0.421941    -8.480928
C  2.736151    -1.465516    -7.665983
C  3.235103    -1.335424    -6.449153
C  -5.459102    -4.809805    0.906998
C  3.141973    1.955218    -8.964547
C  2.179778    -2.790798    -8.076489
N  0.852715    -2.910716    -7.485572
C  -0.117941    -3.261213    -8.520565
C  -1.561602    -3.211463    -7.850653
C  -3.733420    -6.384127    -3.403315
N  -3.298483    -5.274222    -4.237947
C  -3.743956    -5.506783    -5.615398
C  -3.263017    -4.265778    -6.485947
C  -2.396035    -2.098793    -8.034025
C  -3.673530    -2.080908    -7.466077
C  -4.103906    -3.149833    -6.666843
C  -1.986913    -4.282415    -7.062894
C  -0.995219    -5.519048    -6.782342
C  -1.227522    -6.601770    -7.835214
C  -5.535648    -3.071245    -5.932917
C  -6.612628    -3.599753    -6.875047
C  -4.624475    -0.835987    -7.740907
N  -4.259345    0.244394    -6.811626
C  -5.132969    1.356652    -7.009255
C  -1.863848    -0.820168    -8.849759
C  -2.108425    -1.024222    -10.344180
N  -5.618782    1.621002    -8.176107
C  -5.904637    2.838175    -8.486090
C  -5.882357    3.769193    -7.542891
C  -5.570501    3.421045    -6.309855
N  -5.314604    2.189945    -6.045898
C  -5.510865    4.438731    -5.232735
C  -6.242723    3.183966    -9.895828
N  -5.423345    -3.322329    1.100697
N  2.435788    3.083642    -8.282851
C  -5.716867    -2.597641    -0.230141
C  -6.438608    -2.969678    2.133861
C  -7.072371    -2.936696    -0.820315
O  -8.097219    -2.290305    -0.470875
O  -7.157842    -3.734205    -1.641367
C  -8.328432    -1.201971    -1.353328
C  -9.725067    -1.322736    -1.921356
C  -6.404122    -1.491000    2.447865
O  -7.388200    -0.943742    2.672847
O  -5.316964    -0.825050    2.373973
C  -4.422924    -1.114881    3.464017
C  -5.095501    -0.827962    4.805002
C  2.637219    4.378354    -9.046530
C  0.955304    2.777450    -8.045291
C  2.194804    4.361158    -10.501142
O  2.872069    3.726255    -11.366909
O  1.384073    5.100288    -10.843239
C  2.039074    3.261318    -12.433901
C  2.672469    2.036745    -13.059386
C  0.152714    2.512007    -9.293349
O  0.164819    1.475874    -9.778696
O  -0.604327    3.404367    -9.753675
C  -1.947495    3.160155    -9.387489
C  -2.751197    4.396454    -9.680903
H  2.341097    2.165981    -2.544187
H  0.889435    2.850920    -1.400570
H  3.313376    2.175357    0.343370
H  3.897929    3.273123    -1.287492
H  2.399305    3.962513    -0.075123
H  -1.624622    -0.176493    1.560026
H  -1.281527    -2.112325    1.473249
H  1.016288    -0.804926    2.966501
H  -0.766845    -0.071261    3.668268
H  -0.454195    -2.093722    3.587368
H  3.389339    -2.636886    -2.624338
H  2.148217    -3.827888    -1.677747
H  3.947952    -4.523455    -0.408541
H  5.129780    -3.077600    -1.251156
H  3.992727    -2.636757    0.396850
H  -0.275234    1.496481    1.947132
H  0.456096    2.789567    0.657967
H  -1.296291    2.092455    -0.891489
H  1.679803    -4.085611    0.336543
H  0.565208    -3.270118    1.734540
H  -0.180818    -3.740050    -1.180515
H  4.118232    1.030407    -2.137893
H  4.461122    -0.904316    -2.198285
H  -5.429230    3.284877    2.325723
H  -4.486761    2.139982    4.261856
H  -2.441219    2.143159    4.377698
H  -3.486490    3.892313    4.617361
H  -6.218698    2.699651    -0.259109
H  -6.122896    4.701858    0.175951
H  -5.112784    3.955635    -1.445365
H  2.609264    -0.978245    -3.831769
H  -0.721528    -5.186699    1.417071
H  0.093175    -5.855537    -0.284054
H  -1.422409    -6.032811    -2.171613
H  -5.538798    -5.788157    -1.564909
H  -2.944160    -4.664520    1.456949
H  4.938646    -1.002396    -4.422881
H  4.811818    0.992751    -4.500548
H  4.039027    1.831632    -6.501870
H  2.283611    -0.528306    -9.470330
H  3.250412    -2.188487    -5.785022
H  -6.508676    -5.158987    0.441080
H  -5.254730    -5.325708    1.980890
H  4.296453    2.286308    -9.124182
H  2.615133    1.665281    -9.987088
H  2.133747    -2.872664    -9.276249
H  2.876318    -3.648255    -7.592244
H  0.599924    -1.980201    -7.111732
H  0.115434    -4.388488    -8.906359
H  -0.034045    -2.496964    -9.426047
H  -4.908251    -6.566400    -3.570072
H  -3.073984    -7.358728    -3.663343
H  -3.775646    -4.424277    -3.893535
H  -3.246202    -6.524755    -6.016075
H  -4.942666    -5.602807    -5.649672
H  0.152657    -5.190019    -6.864699
H  -1.205690    -5.991450    -5.687160
H  -2.141542    -6.215106    -8.584074
H  -1.543387    -7.649707    -7.245782
H  -0.165981    -6.752395    -8.466513
H  -5.571569    -3.742227    -4.946075
H  -5.796648    -1.922370    -5.647163
H  -7.489296    -2.724777    -6.982966
H  -6.076970    -3.835714    -7.971795
H  -7.080150    -4.636616    -6.373676
H  -4.451316    -0.474825    -8.886493
H  -5.774624    -1.104748    -7.573198
H  -4.349423    -0.072316    -5.824173
H  -2.438647    0.182741    -8.530191
H  -0.678754    -0.680966    -8.657699
H  -1.018565    -0.904215    -10.931176
H  -2.579872    -2.163992    -10.501091
H  -2.912072    -0.152706    -10.720301
H  -6.105638    4.800899    -7.774269
H  -5.246953    3.849020    -4.170018
H  -4.615678    5.250966    -5.528122
H  -6.619476    4.996932    -5.171993
H  -5.973450    4.383055    -10.083565
H  -5.556214    2.453430    -10.631984
H  -7.455507    2.967907    -10.059606
H  -5.703055    -1.410380    -0.046552
H  -4.882530    -2.917513    -1.043708
H  -7.540044    -3.266945    1.762527
H  -6.144255    -3.548654    3.154084
H  -8.257618    -0.179631    -0.724284
H  -7.540633    -1.240726    -2.263386
H  -9.998105    -2.533377    -2.002151
H  -10.501418    -0.739557    -1.144480
H  -9.726073    -0.787067    -3.042888
H  -4.100108    -2.274082    3.430366
H  -3.475090    -0.376839    3.368192
H  -5.717073    -1.847143    5.156202
H  -4.191916    -0.558573    5.616279
H  -5.863993    0.139346    4.662485
H  2.016323    5.244462    -8.482974
H  3.821103    4.610182    -9.052758
H  0.868044    1.792507    -7.358707
H  0.468766    3.740102    -7.503317
H  0.965652    2.935534    -12.007614
H  1.964258    4.121347    -13.273704
H  2.341514    1.048216    -12.380454
H  2.244693    1.942196    -14.223185
H  3.904746    2.196451    -13.045405
H  -2.381316    2.257947    -10.053076
H  -2.002143    2.936964    -8.210450
H  -3.484823    4.147648    -10.652463
H  -3.417699    4.664562    -8.669967
H  -1.951472    5.311315    -9.946574
C  -2.647811    -0.200109    -2.938060
C  -2.018487    -1.439009    -3.517387
C  -0.537348    -1.191195    -3.820407
C  -0.342194    0.104065    -4.616387
C  -1.117684    1.239525    -3.973684
O  -2.486980    0.887070    -3.840993
O  -2.133110    -2.483948    -2.577547
O  -0.020856    -2.277124    -4.561556
O  -0.744506    -0.079109    -5.957859
C  -1.001068    2.501702    -4.809689
O  -1.546707    3.584443    -4.083365
H  -1.789008    -3.342898    -2.972353
H  0.681105    -2.762802    -4.020088
H  -2.469431    3.802479    -4.433377
H  -2.550744    -1.729105    -4.443538
H  0.013329    -1.114058    -2.868232
H  0.717705    0.365221    -4.612192
H  -0.681750    1.440776    -2.991002
H  -1.738858    -0.141602    -6.026684
H  0.163504    2.727417    -5.016146
H  -1.635346    2.369538    -5.820404
O  -4.035092    -0.444632    -2.725574
H  -2.166147    0.021763    -1.967028
C  -4.728542    0.764871    -2.430872
H  -5.121793    1.248779    -3.503270
H  -5.691315    0.476185    -1.699724
H  -3.952648    1.541621    -1.848089
