231
 ** Energy = -4944.363615 Eh ** Charge = 0 ** Spin = 0 ** Curcuma 0.1 (0.0.108)
C  2.537435    -0.186203    -1.548461
C  2.179756    -1.418095    -0.983172
C  1.078574    -1.487251    -0.118265
C  0.318636    -0.340748    0.154223
C  0.627471    0.870297    -0.482146
C  1.734110    0.947177    -1.342196
C  2.082326    2.239208    -2.039142
C  2.981488    3.150846    -1.208381
C  -0.779853    -0.402164    1.183171
C  -0.267141    -0.075753    2.584475
C  2.982996    -2.657804    -1.297976
C  4.073063    -2.953164    -0.272198
C  -0.247971    2.084123    -0.223079
N  -1.512234    2.042404    -0.938095
C  0.681976    -2.793438    0.523191
N  -0.580809    -3.287057    -0.008936
C  3.767082    -0.098657    -2.421651
C  -2.726003    2.182811    -0.359315
N  -3.785919    2.148632    -1.201435
C  -4.992198    2.156351    -0.640708
C  -5.160412    2.232451    0.741501
C  -4.016538    2.346131    1.518237
N  -2.796273    2.315636    0.975903
C  -4.088132    2.553759    2.995413
C  -6.170934    2.052824    -1.555680
N  3.434688    -0.300778    -3.826940
C  -0.997848    -4.552326    0.576586
C  -2.396070    -4.858599    0.134560
C  -2.618670    -5.384054    -1.130266
C  -3.904110    -5.507615    -1.641730
C  -4.984472    -5.169823    -0.833598
C  -4.789917    -4.691098    0.458328
C  -3.490328    -4.517145    0.918962
C  4.578785    -0.303496    -4.734991
C  4.069575    -0.372300    -6.145988
C  3.920652    0.781342    -6.902718
C  3.311639    0.749927    -8.153736
C  2.818540    -0.457399    -8.625648
C  2.948489    -1.629181    -7.884456
C  3.601374    -1.579161    -6.660066
C  -5.953814    -4.294732    1.317818
C  3.138522    2.011654    -8.948944
C  2.216476    -2.863324    -8.317820
N  0.914255    -2.896772    -7.631803
C  -0.156497    -3.530262    -8.400388
C  -1.494840    -3.317158    -7.736545
C  -4.096579    -5.903832    -3.072207
N  -3.491710    -4.905406    -3.961363
C  -3.842534    -5.137892    -5.365566
C  -3.264852    -4.084596    -6.271726
C  -2.187590    -2.113382    -7.945303
C  -3.405941    -1.891590    -7.285643
C  -3.956704    -2.883446    -6.462907
C  -2.009161    -4.282735    -6.862885
C  -1.209248    -5.519969    -6.545589
C  -1.481509    -6.681286    -7.497680
C  -5.300674    -2.660522    -5.814977
C  -6.467749    -3.090832    -6.700043
C  -4.134293    -0.582772    -7.451017
N  -3.776181    0.364688    -6.404058
C  -4.365093    1.576003    -6.306099
C  -1.648498    -1.074792    -8.899295
C  -2.197053    -1.230971    -10.314237
N  -5.248795    1.904485    -7.263547
C  -5.833225    3.100788    -7.161147
C  -5.549596    3.957545    -6.108134
C  -4.606853    3.549366    -5.168053
N  -4.010106    2.358605    -5.261254
C  -4.200802    4.428543    -4.033971
C  -6.790222    3.470307    -8.245415
N  -6.058031    -2.836481    1.439674
N  2.352791    2.995061    -8.208300
C  -6.150193    -2.122551    0.191665
C  -7.026876    -2.419417    2.440271
C  -7.426573    -2.317164    -0.609249
O  -7.449411    -1.458621    -1.650615
O  -8.289391    -3.134149    -0.379067
C  -8.609121    -1.501151    -2.520490
C  -9.719605    -0.633238    -1.987332
C  -6.987496    -0.914492    2.665419
O  -7.919782    -0.200071    2.375483
O  -5.873498    -0.348169    3.168786
C  -4.740193    -1.121681    3.632188
C  -4.824425    -1.354448    5.118965
C  2.470602    4.369951    -8.650763
C  1.032134    2.591821    -7.789912
C  1.712298    4.699465    -9.927569
O  2.367138    4.257277    -11.014875
O  0.629484    5.246501    -9.956922
C  1.646433    4.336719    -12.268400
C  2.500713    3.698244    -13.328247
C  -0.017151    2.413861    -8.877578
O  0.214067    2.064455    -10.016494
O  -1.244170    2.663021    -8.385926
C  -2.366173    2.624990    -9.304743
C  -2.796544    4.029417    -9.638948
H  2.559322    2.014685    -2.990359
H  1.172631    2.778133    -2.297216
H  3.916939    2.656985    -0.949113
H  3.223342    4.063745    -1.752528
H  2.502674    3.434814    -0.272492
H  -1.573207    0.294502    0.941509
H  -1.234030    -1.387859    1.165816
H  0.129917    0.936726    2.639315
H  -1.070629    -0.151731    3.317681
H  0.530173    -0.752548    2.890266
H  3.435891    -2.571757    -2.282359
H  2.316131    -3.513489    -1.384337
H  4.626538    -3.853890    -0.537637
H  4.783354    -2.130263    -0.204827
H  3.655194    -3.096646    0.722857
H  -0.485274    2.165346    0.830864
H  0.279749    2.999053    -0.481011
H  -1.500272    2.140261    -1.950699
H  1.484581    -3.531534    0.439216
H  0.545001    -2.643101    1.595903
H  -0.545210    -3.364965    -1.020381
H  4.223253    0.885142    -2.330565
H  4.529423    -0.801954    -2.065283
H  -6.142892    2.216813    1.190418
H  -5.026421    2.192203    3.405119
H  -3.254265    2.059763    3.488801
H  -4.005196    3.618109    3.221341
H  -6.622072    1.063836    -1.476439
H  -6.940660    2.777309    -1.294139
H  -5.867158    2.202951    -2.586708
H  2.938398    -1.177555    -3.939052
H  -0.966826    -4.444626    1.662415
H  -0.324324    -5.387886    0.324470
H  -1.771654    -5.656418    -1.746384
H  -5.994270    -5.267615    -1.215645
H  -3.328912    -4.091722    1.902295
H  5.277940    -1.130429    -4.532962
H  5.133979    0.622685    -4.582092
H  4.249945    1.732917    -6.503238
H  2.295824    -0.478765    -9.574990
H  3.683585    -2.480025    -6.065699
H  -6.876141    -4.740117    0.934647
H  -5.805289    -4.680119    2.328405
H  4.113806    2.468090    -9.129468
H  2.714291    1.777642    -9.926854
H  2.083175    -2.845157    -9.407140
H  2.776799    -3.769110    -8.077930
H  0.641923    -1.940489    -7.421971
H  0.064127    -4.589514    -8.496794
H  -0.186977    -3.145428    -9.427399
H  -5.167102    -6.035951    -3.280350
H  -3.617342    -6.863882    -3.278613
H  -3.808322    -3.979742    -3.688393
H  -3.472465    -6.122571    -5.636136
H  -4.929160    -5.191396    -5.496266
H  -0.150196    -5.274296    -6.554775
H  -1.410089    -5.826610    -5.522076
H  -2.529876    -6.976871    -7.479785
H  -0.883935    -7.552335    -7.230468
H  -1.245534    -6.417286    -8.527586
H  -5.359372    -3.197265    -4.872025
H  -5.408189    -1.613474    -5.543737
H  -7.419994    -2.912543    -6.200483
H  -6.478525    -2.546869    -7.642807
H  -6.410091    -4.150856    -6.942594
H  -3.924949    -0.137620    -8.418521
H  -5.211275    -0.732809    -7.447380
H  -3.195099    0.068761    -5.629905
H  -1.871890    -0.078462    -8.528094
H  -0.564469    -1.113507    -8.939041
H  -1.769316    -0.478369    -10.974664
H  -1.957883    -2.212803    -10.720310
H  -3.280900    -1.128100    -10.338015
H  -6.031663    4.920224    -6.024372
H  -4.093812    3.852841    -3.117191
H  -3.225646    4.870216    -4.240517
H  -4.914492    5.233520    -3.880183
H  -6.245299    3.670196    -9.168436
H  -7.468396    2.644600    -8.449784
H  -7.366635    4.356322    -7.992964
H  -6.010455    -1.055211    0.360144
H  -5.319139    -2.426881    -0.440671
H  -8.058618    -2.662502    2.177115
H  -6.793155    -2.938197    3.371948
H  -8.237772    -1.139413    -3.476601
H  -8.927646    -2.535305    -2.629365
H  -10.080032    -1.005869    -1.032220
H  -9.383672    0.393094    -1.854829
H  -10.553350    -0.630687    -2.689111
H  -4.666699    -2.040167    3.058512
H  -3.878837    -0.507169    3.382016
H  -5.680316    -1.974822    5.381415
H  -3.923825    -1.861823    5.464505
H  -4.911347    -0.412611    5.656947
H  2.075203    5.022942    -7.874290
H  3.528035    4.593412    -8.789891
H  1.101432    1.631838    -7.276329
H  0.654169    3.309525    -7.064822
H  0.696154    3.822002    -12.143462
H  1.437363    5.383815    -12.484653
H  2.690304    2.651945    -13.097938
H  1.990305    3.747577    -14.289315
H  3.457566    4.207702    -13.426292
H  -2.074224    2.069630    -10.191379
H  -3.150811    2.086072    -8.783066
H  -3.650069    3.996598    -10.316419
H  -3.096528    4.567413    -8.741633
H  -1.991944    4.579938    -10.119396
C  -1.935264    -1.414376    -3.386845
C  -1.028050    -2.452329    -4.039261
C  0.380081    -1.871128    -4.170200
C  0.353556    -0.494506    -4.845154
C  -0.592202    0.402225    -4.082760
O  -1.896448    -0.192842    -4.128086
O  -0.973013    -3.637752    -3.277151
O  1.301462    -2.763295    -4.752857
O  -0.024467    -0.544139    -6.224206
C  -0.703134    1.801480    -4.635960
O  -1.552334    2.608236    -3.844192
H  -1.768765    -4.170888    -3.503134
H  1.076717    -2.910372    -5.700404
H  -2.467250    2.411350    -4.149241
H  -1.430107    -2.657908    -5.033337
H  0.743254    -1.702732    -3.153708
H  1.356527    -0.078557    -4.825796
H  -0.263802    0.455162    -3.041797
H  -0.970082    -0.747157    -6.252450
H  0.290780    2.248158    -4.637540
H  -1.054296    1.772710    -5.667613
O  -3.250238    -1.857336    -3.387189
H  -1.598305    -1.207797    -2.361094
C  -4.109697    -1.023252    -2.606797
H  -4.141016    -0.008877    -2.995068
H  -5.099301    -1.462845    -2.651210
H  -3.765690    -0.985238    -1.571872
231
 ** Energy = -4944.363615 Eh ** Charge = 0 ** Spin = 0 ** Curcuma 0.1 (0.0.108)
C  2.525410    -0.189644    -1.551595
C  2.178704    -1.406476    -0.972079
C  1.073527    -1.480058    -0.125442
C  0.335496    -0.337643    0.152713
C  0.624410    0.859608    -0.485763
C  1.738763    0.940409    -1.330650
C  2.075842    2.244455    -2.055958
C  2.990098    3.153870    -1.195986
C  -0.797869    -0.405676    1.176449
C  -0.259728    -0.072674    2.596353
C  2.982067    -2.670552    -1.315837
C  4.081005    -2.949729    -0.259684
C  -0.255821    2.109496    -0.190799
N  -1.500493    2.028145    -0.982285
C  0.696171    -2.813789    0.545422
N  -0.594237    -3.276299    -0.024928
C  3.798598    -0.092128    -2.421841
C  -2.704956    2.186604    -0.355014
N  -3.792995    2.153480    -1.153058
C  -4.995251    2.151544    -0.651695
C  -5.141488    2.232582    0.732381
C  -4.006537    2.346777    1.527402
N  -2.842177    2.320696    0.953886
C  -4.090007    2.558880    3.001227
C  -6.181875    2.046561    -1.553307
N  3.415637    -0.302772    -3.833081
C  -0.985872    -4.561528    0.594254
C  -2.411802    -4.857461    0.123574
C  -2.621600    -5.381439    -1.128218
C  -3.896903    -5.498962    -1.627193
C  -4.982864    -5.172171    -0.832328
C  -4.774394    -4.693634    0.449213
C  -3.489813    -4.518660    0.918137
C  4.599744    -0.296800    -4.723439
C  4.057768    -0.374570    -6.159238
C  3.919566    0.780287    -6.904071
C  3.316626    0.735211    -8.143698
C  2.821303    -0.457152    -8.624302
C  2.947458    -1.610647    -7.876676
C  3.599043    -1.577088    -6.661061
C  -5.970422    -4.300752    1.319112
C  3.137531    2.016470    -8.968513
C  2.217103    -2.875419    -8.335220
N  0.903232    -2.893780    -7.704213
C  -0.143237    -3.541607    -8.426079
C  -1.496686    -3.311777    -7.726505
C  -4.105501    -5.922470    -3.084088
N  -3.568411    -4.930440    -3.979444
C  -3.856434    -5.163665    -5.364764
C  -3.258898    -4.076586    -6.267719
C  -2.201283    -2.128631    -7.948748
C  -3.402093    -1.897906    -7.280484
C  -3.949393    -2.888173    -6.478019
C  -2.019918    -4.279089    -6.874788
C  -1.197017    -5.521211    -6.531208
C  -1.488410    -6.688569    -7.510132
C  -5.303087    -2.653253    -5.793737
C  -6.474339    -3.096230    -6.711844
C  -4.161004    -0.563634    -7.474092
N  -3.747071    0.349390    -6.383918
C  -4.369377    1.555568    -6.322473
C  -1.632759    -1.058686    -8.894911
C  -2.203832    -1.237239    -10.323252
N  -5.242502    1.936269    -7.230566
C  -5.836434    3.091684    -7.170084
C  -5.540723    3.943342    -6.108870
C  -4.602352    3.545912    -5.161605
N  -4.140345    2.369278    -5.362103
C  -4.196259    4.436762    -4.030713
C  -6.792687    3.474537    -8.252836
N  -6.037748    -2.832552    1.445318
N  2.364443    2.994226    -8.182374
C  -6.154819    -2.134762    0.188342
C  -7.053398    -2.419821    2.438589
C  -7.422204    -2.297429    -0.626367
O  -7.464433    -1.465492    -1.644403
O  -8.276285    -3.122419    -0.380946
C  -8.594994    -1.514349    -2.510668
C  -9.726393    -0.628239    -1.986087
C  -6.964307    -0.915966    2.677049
O  -7.909788    -0.216433    2.377906
O  -5.887893    -0.319985    3.169367
C  -4.753060    -1.127010    3.611550
C  -4.823379    -1.357995    5.129157
C  2.450632    4.386951    -8.649776
C  1.032792    2.574609    -7.801756
C  1.730912    4.678926    -9.946335
O  2.356624    4.267165    -11.017232
O  0.646937    5.239385    -9.956214
C  1.640403    4.342507    -12.246483
C  2.500664    3.695384    -13.339918
C  -0.034580    2.423469    -8.866376
O  0.213146    2.068409    -9.998204
O  -1.244243    2.662532    -8.395976
C  -2.344885    2.617150    -9.303056
C  -2.801995    4.034801    -9.641605
H  2.625391    1.983040    -3.023034
H  1.108699    2.814721    -2.266538
H  3.997461    2.572317    -0.949980
H  3.221962    4.136168    -1.838655
H  2.416644    3.441832    -0.193637
H  -1.585020    0.362934    0.933958
H  -1.222341    -1.458854    1.183988
H  0.158863    1.043380    2.599683
H  -1.176902    -0.173102    3.355564
H  0.602528    -0.841729    2.880854
H  3.496159    -2.525810    -2.325981
H  2.260109    -3.563183    -1.339679
H  4.653597    -3.944179    -0.598786
H  4.832008    -2.028400    -0.232966
H  3.572617    -3.107643    0.803436
H  -0.509997    2.126532    0.890710
H  0.307422    3.037525    -0.537254
H  -1.495099    2.125653    -1.892605
H  1.514158    -3.575189    0.390085
H  0.503436    -2.601731    1.647366
H  -0.538418    -3.368399    -1.018451
H  4.210951    0.958440    -2.342325
H  4.542891    -0.877161    -2.059249
H  -6.143347    2.220382    1.189738
H  -5.118914    2.142282    3.407689
H  -3.169734    1.988270    3.500437
H  -4.000464    3.732203    3.200551
H  -6.633252    0.953642    -1.441365
H  -6.984334    2.867350    -1.244632
H  -5.803223    2.228182    -2.669133
H  2.947321    -1.181658    -3.934832
H  -0.996009    -4.407969    1.713009
H  -0.299612    -5.420090    0.267698
H  -1.772000    -5.653350    -1.746842
H  -5.993712    -5.266079    -1.216379
H  -3.329289    -4.091501    1.901963
H  5.277711    -1.199558    -4.530480
H  5.126375    0.690313    -4.587024
H  4.250717    1.732438    -6.503487
H  2.294548    -0.479326    -9.573843
H  3.680883    -2.478999    -6.064328
H  -6.915980    -4.739739    0.880110
H  -5.761007    -4.680973    2.379174
H  4.171935    2.490171    -9.095451
H  2.654735    1.751594    -9.956205
H  2.055635    -2.808990    -9.455338
H  2.804100    -3.801277    -8.024398
H  0.663940    -1.976594    -7.466012
H  0.078674    -4.649716    -8.459128
H  -0.197612    -3.079384    -9.466736
H  -5.226574    -5.997494    -3.279798
H  -3.555811    -6.895260    -3.274845
H  -3.822190    -3.989641    -3.687523
H  -3.411063    -6.163567    -5.641137
H  -4.993658    -5.148314    -5.487166
H  -0.086094    -5.249529    -6.606837
H  -1.472728    -5.857409    -5.470827
H  -2.641500    -6.976071    -7.443380
H  -0.808868    -7.612657    -7.170598
H  -1.205186    -6.350162    -8.615297
H  -5.362963    -3.275165    -4.842328
H  -5.413487    -1.534514    -5.577516
H  -7.489195    -2.879424    -6.117125
H  -6.444180    -2.468333    -7.721634
H  -6.367677    -4.259494    -6.938835
H  -3.860330    -0.106670    -8.465092
H  -5.275622    -0.762119    -7.396124
H  -3.220859    0.070334    -5.660647
H  -1.938610    -0.025622    -8.508454
H  -0.500640    -1.165021    -8.966443
H  -1.706883    -0.391316    -11.004015
H  -1.910114    -2.317961    -10.722999
H  -3.385878    -1.107345    -10.297215
H  -6.030675    4.920919    -6.025701
H  -4.109561    3.766754    -3.048088
H  -3.131226    4.899908    -4.304112
H  -5.003277    5.288578    -3.891530
H  -6.152884    3.687781    -9.237011
H  -7.521868    2.547101    -8.431301
H  -7.403727    4.436459    -7.932235
H  -6.045770    -0.991299    0.398174
H  -5.289740    -2.491474    -0.477817
H  -8.102560    -2.656339    2.128232
H  -6.748748    -2.946189    3.417415
H  -8.222238    -1.091394    -3.508703
H  -8.954477    -2.581429    -2.604078
H  -10.085520    -1.070393    -0.943345
H  -9.314084    0.478167    -1.854345
H  -10.611066    -0.655130    -2.779650
H  -4.686457    -2.098648    3.058658
H  -3.843495    -0.449955    3.400299
H  -5.773131    -2.035213    5.364336
H  -3.823654    -1.909108    5.458263
H  -4.918713    -0.302422    5.670556
H  2.027081    5.037765    -7.841254
H  3.577458    4.582047    -8.821639
H  1.119623    1.565027    -7.284784
H  0.636096    3.380224    -7.057964
H  0.669575    3.761047    -12.135325
H  1.467453    5.441425    -12.501362
H  2.686888    2.557758    -13.040314
H  1.910628    3.771355    -14.362239
H  3.536784    4.281439    -13.403727
H  -2.046400    2.070279    -10.241525
H  -3.190092    2.089109    -8.741984
H  -3.726372    3.954592    -10.380038
H  -3.114468    4.585004    -8.634725
H  -1.894573    4.598196    -10.161302
C  -1.935292    -1.401885    -3.383042
C  -1.021285    -2.448813    -4.047782
C  0.377740    -1.867001    -4.157217
C  0.365541    -0.482857    -4.857026
C  -0.608217    0.393665    -4.075229
O  -1.863411    -0.198093    -4.091595
O  -0.976304    -3.631699    -3.284817
O  1.294611    -2.765393    -4.757657
O  -0.045446    -0.508459    -6.175458
C  -0.682555    1.806597    -4.644562
O  -1.551495    2.612364    -3.909486
H  -1.670586    -4.136729    -3.477730
H  1.085570    -2.916898    -5.599957
H  -2.371502    2.416644    -4.073502
H  -1.426538    -2.657755    -5.028189
H  0.740069    -1.703426    -3.154287
H  1.346624    -0.073578    -4.826937
H  -0.263587    0.456563    -3.044026
H  -0.971674    -0.744194    -6.257714
H  0.341334    2.265917    -4.598030
H  -1.108544    1.754795    -5.704790
O  -3.250632    -1.855955    -3.385297
H  -1.599183    -1.211508    -2.359031
C  -4.103551    -1.023222    -2.607232
H  -4.124277    0.071934    -3.059369
H  -5.173090    -1.522048    -2.672000
H  -3.712015    -1.006777    -1.487819
231
 ** Energy = -4944.363615 Eh ** Charge = 0 ** Spin = 0 ** Curcuma 0.1 (0.0.108)
C  2.648962    -0.202634    -1.479165
C  2.285637    -1.456633    -0.888474
C  1.175737    -1.541449    0.015817
C  0.418483    -0.384688    0.313155
C  0.704425    0.840751    -0.337299
C  1.825715    0.938993    -1.240565
C  2.115517    2.300404    -2.040745
C  2.967652    3.243887    -1.169388
C  -0.818937    -0.472829    1.392785
C  -0.284474    -0.116528    2.815044
C  3.074923    -2.770182    -1.279621
C  4.138887    -3.052491    -0.222561
C  -0.318920    2.080222    -0.089516
N  -1.564788    1.779254    -0.865504
C  0.704054    -2.957164    0.680820
N  -0.571538    -3.345212    0.042810
C  3.965864    -0.084154    -2.490678
C  -2.745934    2.428500    -0.327364
N  -3.797907    2.475741    -1.082719
C  -4.960890    2.283205    -0.557814
C  -5.092289    2.305688    0.745718
C  -4.017694    2.524151    1.486403
N  -2.865952    2.666865    0.928363
C  -4.127462    2.630566    2.966120
C  -6.156707    2.055068    -1.412397
N  3.499102    -0.284366    -3.876720
C  -1.068288    -4.603501    0.615726
C  -2.485949    -4.863726    0.086638
C  -2.679415    -5.355194    -1.134666
C  -3.916588    -5.538207    -1.596041
C  -4.960728    -5.248131    -0.832172
C  -4.778414    -4.755688    0.377556
C  -3.544342    -4.557115    0.837584
C  4.613211    -0.270666    -4.832505
C  4.011763    -0.362075    -6.246037
C  3.890703    0.737514    -6.980807
C  3.303652    0.698676    -8.175814
C  2.823483    -0.459268    -8.646204
C  2.933011    -1.570657    -7.917034
C  3.536619    -1.520152    -6.717380
C  -5.954600    -4.348701    1.211417
C  3.129151    2.002756    -8.953046
C  2.296883    -2.883993    -8.387613
N  0.997653    -3.010590    -7.696947
C  -0.043060    -3.588774    -8.584988
C  -1.518052    -3.366167    -7.846844
C  -4.121437    -6.002372    -3.005687
N  -3.539234    -4.998197    -3.899371
C  -3.929771    -5.305026    -5.303969
C  -3.310720    -4.151906    -6.305790
C  -2.252600    -2.165442    -8.072962
C  -3.485111    -1.939202    -7.396154
C  -4.024707    -2.942553    -6.527007
C  -2.041256    -4.347177    -6.940470
C  -1.171505    -5.623344    -6.588724
C  -1.480926    -6.787038    -7.567143
C  -5.444800    -2.677503    -5.771471
C  -6.605087    -3.061912    -6.730814
C  -4.256649    -0.505335    -7.543672
N  -3.663437    0.412240    -6.530714
C  -4.499088    1.567453    -6.362442
C  -1.663907    -1.021757    -9.037168
C  -2.199836    -1.216583    -10.486927
N  -5.389083    1.897661    -7.235074
C  -5.891449    3.096227    -7.212043
C  -5.539862    3.933036    -6.251312
C  -4.745088    3.516001    -5.300861
N  -4.349669    2.289627    -5.300372
C  -4.305648    4.446595    -4.228567
C  -6.830062    3.535868    -8.276363
N  -5.914912    -2.870893    1.432142
N  2.446525    3.010100    -8.068101
C  -6.020915    -2.084624    0.123588
C  -6.963447    -2.484385    2.414818
C  -7.337900    -2.178720    -0.682419
O  -7.476259    -1.401831    -1.698013
O  -8.167170    -2.913180    -0.391441
C  -8.672810    -1.603355    -2.490388
C  -9.786809    -0.703229    -1.962761
C  -6.909423    -0.996954    2.763457
O  -7.873816    -0.387192    2.627713
O  -5.825909    -0.340450    3.076008
C  -4.711414    -1.100669    3.678134
C  -4.887398    -1.276710    5.178682
C  2.478779    4.394231    -8.648765
C  1.038312    2.589876    -7.642410
C  1.855864    4.528127    -9.983691
O  2.504991    4.199745    -11.028507
O  0.842470    5.060544    -10.070888
C  1.700525    4.290912    -12.205767
C  2.461397    3.692458    -13.353253
C  -0.046163    2.493874    -8.715901
O  0.185634    2.005696    -9.719659
O  -1.263385    2.781668    -8.365037
C  -2.283188    2.706403    -9.421600
C  -2.766259    4.090566    -9.730342
H  2.733269    2.080812    -3.050873
H  1.076191    2.859329    -2.322115
H  4.027307    2.654885    -0.851254
H  3.207818    4.230649    -1.860786
H  2.315838    3.562939    -0.151809
H  -1.695210    0.300227    1.129071
H  -1.270888    -1.572080    1.478192
H  0.162525    1.049093    2.815095
H  -1.238937    -0.214101    3.586549
H  0.616403    -0.931401    3.123142
H  3.644448    -2.647778    -2.315232
H  2.306833    -3.704524    -1.354338
H  4.718138    -4.083981    -0.570918
H  4.929660    -2.082556    -0.195422
H  3.587164    -3.201789    0.881846
H  -0.546974    2.141689    1.070927
H  0.109948    3.110184    -0.493192
H  -1.452456    2.086511    -1.810361
H  1.465189    -3.845495    0.510612
H  0.518037    -2.781947    1.859900
H  -0.377880    -3.506418    -0.935518
H  4.456232    1.017585    -2.401848
H  4.791360    -0.915227    -2.226662
H  -6.065977    2.155846    1.191139
H  -5.226135    2.166358    3.315413
H  -3.190220    1.988135    3.461262
H  -4.042953    3.837177    3.256154
H  -6.596381    0.927150    -1.141574
H  -6.988575    2.936332    -1.133127
H  -5.810248    2.128201    -2.602094
H  3.088818    -1.207232    -3.926816
H  -1.138024    -4.479925    1.802049
H  -0.349155    -5.512975    0.285309
H  -1.837454    -5.584454    -1.762371
H  -5.960151    -5.380441    -1.205799
H  -3.409406    -4.127488    1.815901
H  5.318716    -1.225191    -4.644164
H  5.203497    0.770363    -4.734432
H  4.240600    1.681812    -6.600811
H  2.318315    -0.491763    -9.595000
H  3.604405    -2.409982    -6.112619
H  -6.974782    -4.682709    0.685544
H  -5.808510    -4.888201    2.286072
H  4.244956    2.416585    -9.181228
H  2.516472    1.801174    -9.957846
H  2.152737    -2.859185    -9.568390
H  3.019113    -3.785678    -8.020487
H  0.720659    -2.077486    -7.497611
H  0.220885    -4.753131    -8.719698
H  -0.046184    -3.039335    -9.647501
H  -5.299632    -6.079849    -3.220306
H  -3.552162    -7.049565    -3.156248
H  -3.943147    -4.094307    -3.640233
H  -3.491064    -6.379855    -5.564454
H  -5.137098    -5.323914    -5.404963
H  0.004141    -5.357910    -6.672875
H  -1.420531    -5.995706    -5.474155
H  -2.690776    -7.083602    -7.489585
H  -0.776976    -7.729418    -7.202014
H  -1.188590    -6.445223    -8.732236
H  -5.586845    -3.368755    -4.826400
H  -5.552297    -1.503027    -5.430692
H  -7.652270    -2.809011    -6.136022
H  -6.524812    -2.402853    -7.784842
H  -6.519351    -4.289343    -6.976584
H  -4.110039    -0.032966    -8.635108
H  -5.416603    -0.626959    -7.302551
H  -3.622323    -0.052137    -5.632553
H  -2.014292    0.055644    -8.648463
H  -0.473169    -1.060933    -9.091147
H  -1.693900    -0.320177    -11.172314
H  -1.852876    -2.344785    -10.910428
H  -3.440030    -1.114833    -10.477113
H  -5.896761    4.958595    -6.235760
H  -4.139830    3.785447    -3.199291
H  -3.240411    4.962663    -4.603120
H  -5.185365    5.310304    -4.064616
H  -6.155861    3.805710    -9.276676
H  -7.615419    2.599088    -8.495386
H  -7.446572    4.543071    -7.867712
H  -5.862472    -0.912954    0.392296
H  -5.152336    -2.476446    -0.601284
H  -8.047534    -2.722470    1.974211
H  -6.756582    -3.097479    3.436305
H  -8.410734    -1.214553    -3.604918
H  -9.055262    -2.757525    -2.502771
H  -10.175968    -1.162171    -0.869197
H  -9.320757    0.444379    -1.830167
H  -10.698696    -0.710531    -2.799536
H  -4.545127    -2.168936    3.218728
H  -3.727185    -0.392686    3.528599
H  -5.900859    -1.969201    5.395744
H  -3.865324    -1.858087    5.583098
H  -4.985074    -0.150296    5.691884
H  1.893007    5.131289    -7.875146
H  3.617699    4.698417    -8.782285
H  1.102709    1.505925    -7.116472
H  0.660059    3.436369    -6.868476
H  0.690470    3.647129    -12.062318
H  1.481711    5.455488    -12.475759
H  2.653309    2.488703    -13.093968
H  1.761346    3.828306    -14.357072
H  3.542993    4.306424    -13.472493
H  -1.919740    2.209620    -10.467108
H  -3.222290    2.125780    -8.957322
H  -3.744998    3.981302    -10.485726
H  -3.090388    4.637739    -8.661209
H  -1.832256    4.692519    -10.284544
C  -1.863235    -1.252632    -3.246233
C  -0.976766    -2.234189    -3.944833
C  0.396882    -1.687143    -4.051145
C  0.334718    -0.360389    -4.771032
C  -0.567471    0.558548    -4.035204
O  -1.860208    0.004880    -3.939392
O  -0.962719    -3.444605    -3.241028
O  1.241860    -2.593021    -4.744580
O  -0.115433    -0.534034    -6.080781
C  -0.603800    1.895638    -4.798417
O  -1.370173    2.844566    -4.120242
H  -1.043050    -4.215866    -3.893808
H  0.733859    -3.381481    -5.067147
H  -2.261756    2.465625    -3.893891
H  -1.393673    -2.429605    -4.925738
H  0.789331    -1.536838    -3.062360
H  1.306349    0.096625    -4.822967
H  -0.169784    0.713328    -3.042790
H  -1.106600    -0.531367    -6.148542
H  0.521497    2.297148    -4.844792
H  -1.100193    1.743454    -5.885338
O  -3.155853    -1.783603    -3.289053
H  -1.532617    -1.125118    -2.193132
C  -4.082930    -0.971586    -2.631859
H  -4.130303    0.145009    -3.172374
H  -5.172262    -1.562052    -2.746936
H  -3.739805    -0.881609    -1.446813
231
 ** Energy = -4944.363615 Eh ** Charge = 0 ** Spin = 0 ** Curcuma 0.1 (0.0.108)
C  2.601694    -0.259240    -1.414036
C  2.275609    -1.506524    -0.825107
C  1.188356    -1.598298    0.091762
C  0.419378    -0.459018    0.403750
C  0.674434    0.761187    -0.247430
C  1.769704    0.865703    -1.163517
C  2.041180    2.234925    -1.952250
C  2.894314    3.179787    -1.086092
C  -0.792511    -0.559512    1.528814
C  -0.220915    -0.235721    2.937164
C  3.108758    -2.830614    -1.224712
C  4.193508    -3.102808    -0.162658
C  -0.345195    1.997056    0.040621
N  -1.662642    1.645662    -0.559156
C  0.741383    -3.000063    0.731589
N  -0.508558    -3.392652    0.062190
C  3.890699    -0.124373    -2.431785
C  -2.648919    2.629041    -0.228817
N  -3.679909    2.725327    -0.996378
C  -4.838374    2.452598    -0.494862
C  -4.979333    2.448077    0.825655
C  -3.918239    2.730089    1.579768
N  -2.795139    2.992642    0.997835
C  -4.007152    2.723601    3.073075
C  -5.996570    2.129033    -1.368556
N  3.416574    -0.333556    -3.809793
C  -1.022824    -4.628248    0.644538
C  -2.418640    -4.877769    0.059797
C  -2.568278    -5.350824    -1.179045
C  -3.795565    -5.525914    -1.685726
C  -4.863755    -5.230660    -0.948085
C  -4.720390    -4.763527    0.277998
C  -3.500687    -4.581546    0.779945
C  4.530201    -0.255634    -4.766000
C  3.929044    -0.365876    -6.183413
C  3.815761    0.721353    -6.939135
C  3.234304    0.668368    -8.139303
C  2.754195    -0.497190    -8.596042
C  2.868107    -1.607624    -7.851153
C  3.460771    -1.533434    -6.640624
C  -5.927447    -4.391344    1.111159
C  3.095048    1.962438    -8.944332
C  2.276952    -2.956242    -8.335520
N  0.960000    -3.136029    -7.684730
C  -0.077957    -3.529432    -8.658289
C  -1.551028    -3.356825    -7.905970
C  -3.976606    -6.016180    -3.100625
N  -3.419360    -5.024704    -4.008961
C  -3.831077    -5.358948    -5.390556
C  -3.284543    -4.208165    -6.386332
C  -2.310142    -2.168305    -8.067173
C  -3.558055    -1.996759    -7.401372
C  -4.044498    -3.017763    -6.564944
C  -2.030829    -4.366380    -7.049120
C  -1.134205    -5.659455    -6.759893
C  -1.515995    -6.825770    -7.717289
C  -5.447494    -2.797023    -5.772739
C  -6.638169    -3.170105    -6.691874
C  -4.380803    -0.582484    -7.548405
N  -3.779758    0.366541    -6.610221
C  -4.591373    1.554440    -6.499641
C  -1.731683    -0.992006    -8.958174
C  -2.160327    -1.206090    -10.425137
N  -5.438953    1.890876    -7.416172
C  -5.913417    3.097058    -7.442625
C  -5.586982    3.949904    -6.487905
C  -4.815114    3.553934    -5.507201
N  -4.421064    2.323896    -5.471172
C  -4.429408    4.502887    -4.423248
C  -6.823407    3.512597    -8.547646
N  -5.877100    -2.929641    1.408988
N  2.468806    3.016183    -8.078040
C  -6.040313    -2.088563    0.124571
C  -6.890377    -2.569850    2.453509
C  -7.375454    -2.198342    -0.628879
O  -7.523261    -1.444647    -1.657524
O  -8.233984    -2.840351    -0.241822
C  -8.712467    -1.710233    -2.429170
C  -9.845107    -0.832484    -1.907176
C  -6.667564    -1.154797    2.920232
O  -7.535400    -0.573635    3.407723
O  -5.521696    -0.611399    2.813379
C  -4.577858    -1.162068    3.750114
C  -5.107721    -1.069539    5.191936